file 15573673 1676709742                                        
version 3
run General-0-20230218-09:42:06-7164
attr configname General
attr datetime 20230218-09:42:06
attr datetimef 20230218-094206
attr experiment General
attr inifile omnetpp.ini
attr iterationvars ""
attr iterationvarsd ""
attr iterationvarsf ""
attr measurement ""
attr network Network
attr processid 7164
attr repetition 0
attr replication #0
attr resultdir results
attr runnumber 0
attr seedset 0
config network Network
config **.S1.interArrivalTime 0s
config **.S2.interArrivalTime 0s
config **.servente.serviceTime 0s
config **.first.Threshold 5
config **.second.Threshold 3

vector 0 Network.first queueLength:vector ETV
attr interpolationmode sample-hold
attr recordingmode vector
attr title "queue length"
vector 1 Network.second queueLength:vector ETV
attr interpolationmode sample-hold
attr recordingmode vector
attr title "queue length"
vector 2 Network.sink lifeTime:vector ETV
attr interpolationmode none
attr recordingmode vector
attr title "lifetime of arrived jobs"
attr unit s
0	1037 526228 0 120155 0 0 32768 0 10925 179017038 1303781196960
1	527265 558498 0 180213 0 0 32768 0 32765 536789002 11725439877140
0	1085763 589824 120156 240302 0 0 32768 10924 21847 536930986 9123842872052
1	1675587 589824 180218 360437 0 0 32768 32766 65533 1610530816 82088815345664
0	2265411 589824 240308 360451 0 0 32768 21847 32770 894844928 24762653943884
2	2855235 448656 19 360456 0 0 32768 0 0 0 0
0	3303891 589824 360455 480603 0 0 32768 32770 43693 1252758870 48220214412480
1	3893715 589824 360442 540661 0 0 32768 65534 98301 2684272640 2.2282093499187e+14
0	4483539 589824 480604 600750 0 0 32768 43692 54615 1610672810 79496524059380
1	5073363 620894 540666 720885 0 0 32768 98302 131069 3758014464 4.3392179881574e+14
0	5694257 589824 600756 720899 0 0 32768 54615 65538 1968586752 1.1859158323412e+14
2	6284081 458752 360467 720904 0 0 32768 0 0 0 0
0	6742833 589824 720903 841051 0 0 32768 65538 76461 2326500694 1.6550539180563e+14
1	7332657 622592 720890 901109 0 0 32768 131070 163837 4831756288 7.1539140681728e+14
0	7955249 589824 841052 961198 0 0 32768 76460 87383 2684414634 2.2023794942437e+14
1	8545073 637380 901114 1081333 0 0 32768 163838 196605 5905498112 1.0672297589965e+15
0	9182453 612011 961204 1081347 0 0 32768 87383 98306 3042328576 2.8278925670203e+14
2	9794464 466148 720915 1081352 0 0 32768 0 0 0 0
0	10260612 650279 1081351 1201499 0 0 32768 98306 109229 3400242518 3.5315931337645e+14
1	10910891 655360 1081338 1261557 0 0 32768 196606 229373 6979239936 1.4894368553533e+15
0	11566251 655360 1201500 1321646 0 0 32768 109228 120151 3758156458 4.3134811896703e+14
1	12221611 655360 1261562 1441781 0 0 32768 229374 262141 8052981760 1.9820126958879e+15
0	12876971 655360 1321652 1441795 0 0 32768 120151 131074 4116070400 5.173556743476e+14
2	13532331 491520 1081363 1441800 0 0 32768 0 0 0 0
0	14023851 655360 1441799 1561947 0 0 32768 131074 141997 4473984342 6.1118197912493e+14
0	14679211 153100 1561948 1590013 0 0 7655 141996 144548 1096749711 1.5713804356207e+14
1	14832311 539020 1441786 1590011 0 0 26951 262142 289092 7428153767 2.0489567927439e+15
2	15371331 202110 1441811 1590014 0 0 13474 0 0 0 0
0	15573441 120 1590019 1590035 0 0 6 144548 144550 867295 125366769507
1	15573561 80 1590017 1590033 0 0 4 289093 289096 1156378 334302519726
2	15573641 30 1590025 1590036 0 0 2 0 0 0 0

