file 12487093 1676710783                                        
version 3
run General-0-20230218-09:59:17-5528
attr configname General
attr datetime 20230218-09:59:17
attr datetimef 20230218-095917
attr experiment General
attr inifile omnetpp.ini
attr iterationvars ""
attr iterationvarsd ""
attr iterationvarsf ""
attr measurement ""
attr network Network
attr processid 5528
attr repetition 0
attr replication #0
attr resultdir results
attr runnumber 0
attr seedset 0
config network Network
config **.S1.interArrivalTime 0s
config **.S2.interArrivalTime 0s
config **.servente.serviceTime 0s
config **.first.Threshold 5
config **.second.Threshold 3

vector 0 Network.first queueLength:vector ETV
attr interpolationmode sample-hold
attr recordingmode vector
attr title "queue length"
vector 1 Network.second queueLength:vector ETV
attr interpolationmode sample-hold
attr recordingmode vector
attr title "queue length"
vector 2 Network.sink lifeTime:vector ETV
attr interpolationmode none
attr recordingmode vector
attr title "lifetime of arrived jobs"
attr unit s
1	1037 546062 0 144177 0 0 32768 0 19661 322138930 4222446775172
0	547099 546060 0 144179 0 0 32768 0 19661 322112718 4221931421040
0	1093159 589824 144180 288356 0 0 32768 19660 39321 966357810 29554292683572
1	1682983 589824 144182 288357 0 0 32768 19662 39322 966384026 29555838955684
2	2272807 448656 19 360456 0 0 32768 0 0 0 0
0	2721463 589824 288361 432534 0 0 32768 39322 58982 1610602906 80219402038804
1	3311287 589824 288359 432536 0 0 32768 39322 58983 1610629120 80221978992968
1	3901111 589824 432542 576713 0 0 32768 58983 78643 2254874214 1.5622086688702e+14
0	4490935 589824 432538 576715 0 0 32768 58982 78643 2254848000 1.5621725917217e+14
0	5080759 589824 576721 720892 0 0 32768 78643 98303 2899093094 2.575478641623e+14
1	5670583 589824 576719 720896 0 0 32768 78644 98305 2899119310 2.5755250303107e+14
2	6260407 458752 360467 720904 0 0 32768 0 0 0 0
1	6719159 619767 720899 865073 0 0 32768 98304 117965 3543364402 3.842168863241e+14
0	7338926 619766 720898 865075 0 0 32768 98304 117965 3543338190 3.8421121748107e+14
0	7958692 624696 865076 1009252 0 0 32768 117964 137625 4187583282 5.3620731779154e+14
1	8583388 624695 865078 1009253 0 0 32768 117966 137626 4187609498 5.3621401833898e+14
2	9208083 466148 720915 1081352 0 0 32768 0 0 0 0
0	9674231 655360 1009257 1153430 0 0 32768 137626 157286 4831828378 7.1353616698114e+14
1	10329591 655360 1009255 1153432 0 0 32768 137626 157287 4831854592 7.1354389781742e+14
0	10984951 610220 1153434 1287678 0 0 30511 157286 175592 5078232533 8.4607007581764e+14
1	11595171 610200 1153438 1287676 0 0 30510 157287 175593 5078081349 8.460473681778e+14
2	12205371 281355 1081363 1287679 0 0 18757 0 0 0 0
0	12486726 20 1287684 1287684 0 0 1 175593 175593 175593 30832901649
1	12486746 60 1287682 1287687 0 0 3 175593 175594 526781 92499407321
0	12486806 60 1287689 1287696 0 0 3 175594 175595 526783 92500109697
1	12486866 40 1287693 1287698 0 0 2 175595 175596 351191 61667559241
2	12486906 15 1287690 1287690 0 0 1 0 0 0 0
0	12486921 60 1287700 1287711 0 0 3 175595 175597 526788 92501865650
1	12486981 80 1287704 1287715 0 0 4 175596 175598 702388 123337225638
2	12487061 30 1287701 1287712 0 0 2 0 0 0 0

