version 3
run General-30-20221103-10:28:22-6760
attr configname General
attr datetime 20221103-10:28:22
attr datetimef 20221103-102822
attr experiment General
attr inifile block.ini
attr iterationvars "$0=4, $1=10"
attr iterationvarsd 4/10
attr iterationvarsf 4,10-
attr measurement "$0=4, $1=10"
attr network Block
attr processid 6760
attr repetition 0
attr replication #0
attr resultdir results
attr runnumber 30
attr seedset 30
config network Block
config repeat 5
config sim-time-limit 1000s
config warmup-period 100s
config **.alloca.resourceModuleName "\"risorse\""
config **.dealloca.resourceModuleName "\"risorse\""
config **.is.delay exponential(3s)
config **.servente.serviceTime exponential(4s)
config **.dealloca.resourceAmount 2
config **.alloca.resourceAmount 2
config **.risorse.amount 6
config **.sorgente.numJobs (10)
config **.result-recording-modes all

vector 0 Block.servente queueLength:vector ETV
attr interpolationmode sample-hold
attr recordingmode vector
attr title "queue length"
vector 1 Block.servente queueingTime:vector ETV
attr interpolationmode none
attr recordingmode vector
attr title "queueing time at dequeue"
attr unit s
vector 2 Block.alloca queueLength:vector ETV
attr interpolationmode sample-hold
attr recordingmode vector
attr title "queue length"
vector 3 Block.alloca queueingTime:vector ETV
attr interpolationmode none
attr recordingmode vector
attr title "queueing time at dequeue"
attr unit s
vector 4 Block.risorse amount:vector ETV
attr interpolationmode sample-hold
attr recordingmode vector
attr title "available resource"
vector 5 Block.is delayedJobs:vector ETV
attr interpolationmode sample-hold
attr recordingmode vector
attr title "number of delayed jobs"
0	167	101.617593189988	1
0	169	101.617593189988	2
0	173	122.054807907084	1
0	175	122.054807907084	2
0	179	127.588651889904	1
0	181	127.588651889904	2
0	183	129.547921075817	1
0	185	129.547921075817	2
0	189	131.434300396538	1
0	191	131.434300396538	2
0	197	135.507177121026	1
0	199	135.507177121026	2
0	201	136.189455943929	1
0	203	136.189455943929	2
0	209	150.111470915086	1
0	211	150.111470915086	2
0	215	164.888339872726	1
0	217	164.888339872726	2
0	219	165.121833702485	1
0	221	165.121833702485	2
0	225	166.341380152895	1
0	227	166.341380152895	2
0	229	167.266845592335	1
0	231	167.266845592335	2
0	237	168.496655294369	1
0	239	168.496655294369	2
0	245	169.483698855533	1
0	247	169.483698855533	2
0	249	169.787945267971	1
0	251	169.787945267971	2
0	255	171.83865024656	1
0	257	171.83865024656	2
0	263	173.51106930709	1
0	265	173.51106930709	2
0	269	179.264772152815	1
0	271	179.264772152815	2
0	275	184.942022190142	1
0	277	184.942022190142	2
0	279	186.504237793068	1
0	281	186.504237793068	2
0	283	186.873061574306	1
0	285	186.873061574306	2
0	289	189.791613416457	1
0	291	189.791613416457	2
0	299	193.720247861935	1
0	301	193.720247861935	2
0	303	195.3238529444	1
0	305	195.3238529444	2
0	307	195.766485522762	1
0	309	195.766485522762	2
0	317	199.939236096852	1
0	319	199.939236096852	2
0	321	201.151909151199	1
0	323	201.151909151199	2
0	325	203.660237084089	1
0	327	203.660237084089	2
0	333	205.878105594805	1
0	335	205.878105594805	2
0	339	208.80660852953	1
0	341	208.80660852953	2
0	347	213.21926442193	1
0	349	213.21926442193	2
0	353	233.17347163949	1
0	355	233.17347163949	2
0	359	236.963587648905	1
0	361	236.963587648905	2
0	363	238.453703026261	1
0	365	238.453703026261	2
0	369	240.025413953718	1
0	371	240.025413953718	2
0	377	246.136876325866	1
0	379	246.136876325866	2
0	383	255.911607770735	1
0	385	255.911607770735	2
0	389	264.116204063939	1
0	391	264.116204063939	2
0	393	266.248118076895	1
0	395	266.248118076895	2
0	397	267.269079563774	1
0	399	267.269079563774	2
0	407	271.206805305525	1
0	409	271.206805305525	2
0	411	271.24295067206	1
0	413	271.24295067206	2
0	415	273.588850544956	1
0	417	273.588850544956	2
0	425	281.449658589602	1
0	427	281.449658589602	2
0	431	285.293632476081	1
0	433	285.293632476081	2
0	435	286.835820736885	1
0	437	286.835820736885	2
0	443	292.039230289743	1
0	445	292.039230289743	2
0	449	292.465289264292	1
0	451	292.465289264292	2
0	453	293.447909034422	1
0	455	293.447909034422	2
0	457	293.533644910584	1
0	459	293.533644910584	2
0	465	297.249871593774	1
0	467	297.249871593774	2
0	473	300.9760329277	1
0	475	300.9760329277	2
0	477	301.032135076555	1
0	479	301.032135076555	2
0	481	301.579270694006	1
0	483	301.579270694006	2
0	487	305.311953125728	1
0	489	305.311953125728	2
0	493	308.811935340921	1
0	495	308.811935340921	2
0	499	311.14700616602	1
0	501	311.14700616602	2
0	503	312.48974593912	1
0	505	312.48974593912	2
0	507	313.268493386391	1
0	509	313.268493386391	2
0	513	313.810127344062	1
0	515	313.810127344062	2
0	519	314.724637280254	1
0	521	314.724637280254	2
0	529	322.811931358299	1
0	531	322.811931358299	2
0	537	324.87199206102	1
0	539	324.87199206102	2
0	543	324.997871077333	1
0	545	324.997871077333	2
0	549	326.567628714174	1
0	551	326.567628714174	2
0	557	330.474087492148	1
0	559	330.474087492148	2
0	561	331.293755140237	1
0	563	331.293755140237	2
0	567	333.667934786506	1
0	569	333.667934786506	2
0	571	335.013715012616	1
0	573	335.013715012616	2
0	581	339.927537573939	1
0	583	339.927537573939	2
0	587	343.903613974749	1
0	589	343.903613974749	2
0	593	346.513336258014	1
0	595	346.513336258014	2
0	599	353.247171390009	1
0	601	353.247171390009	2
0	603	353.751927503504	1
0	605	353.751927503504	2
0	609	356.65981392428	1
0	611	356.65981392428	2
0	615	358.185562471628	1
0	617	358.185562471628	2
0	621	362.743489560047	1
0	623	362.743489560047	2
0	625	362.848662147862	1
0	627	362.848662147862	2
0	635	371.037969383755	1
0	637	371.037969383755	2
0	641	374.208926148167	1
0	643	374.208926148167	2
0	647	383.815184898675	1
0	649	383.815184898675	2
0	653	387.311201969815	1
0	655	387.311201969815	2
0	657	387.59853809996	1
0	659	387.59853809996	2
0	663	388.291418661147	1
0	665	388.291418661147	2
0	671	393.087754479041	1
0	673	393.087754479041	2
0	677	394.31416148485	1
0	679	394.31416148485	2
0	683	405.418823157023	1
0	685	405.418823157023	2
0	687	405.443417824246	1
0	689	405.443417824246	2
0	695	409.710077028464	1
0	697	409.710077028464	2
0	699	417.293838774574	1
0	701	417.293838774574	2
0	707	431.096654213825	1
0	709	431.096654213825	2
0	713	434.161625230345	1
0	715	434.161625230345	2
0	719	445.13176225514	1
0	721	445.13176225514	2
0	725	449.581801855866	1
0	727	449.581801855866	2
0	731	454.732796348694	1
0	733	454.732796348694	2
0	735	460.228617022994	1
0	737	460.228617022994	2
0	741	461.054708268334	1
0	743	461.054708268334	2
0	749	464.921544454364	1
0	751	464.921544454364	2
0	753	465.935883500768	1
0	755	465.935883500768	2
0	757	466.253200810601	1
0	759	466.253200810601	2
0	763	467.7990814023	1
0	765	467.7990814023	2
0	769	469.275563482183	1
0	771	469.275563482183	2
0	775	469.903709584643	1
0	777	469.903709584643	2
0	783	479.153828852823	1
0	785	479.153828852823	2
0	791	483.406584701742	1
0	793	483.406584701742	2
0	795	483.530175771561	1
0	797	483.530175771561	2
0	801	486.816956894214	1
0	803	486.816956894214	2
0	805	487.753635668018	1
0	807	487.753635668018	2
0	809	488.314172704222	1
0	811	488.314172704222	2
0	821	493.087034347073	1
0	823	493.087034347073	2
0	825	494.132903410866	1
0	827	494.132903410866	2
0	829	494.542127182554	1
0	831	494.542127182554	2
0	837	500.84583377592	1
0	839	500.84583377592	2
0	845	504.827966000218	1
0	847	504.827966000218	2
0	849	507.70100418208	1
0	851	507.70100418208	2
0	857	514.765817329024	1
0	859	514.765817329024	2
0	863	515.8886185387	1
0	865	515.8886185387	2
0	869	523.958380527261	1
0	871	523.958380527261	2
0	873	524.352359692758	1
0	875	524.352359692758	2
0	879	524.815212779914	1
0	881	524.815212779914	2
0	883	524.847011303599	1
0	885	524.847011303599	2
0	891	525.48317265386	1
0	893	525.48317265386	2
0	895	527.0369184799	1
0	897	527.0369184799	2
0	899	527.505268256446	1
0	901	527.505268256446	2
0	909	531.475136547933	1
0	911	531.475136547933	2
0	917	533.662725862372	1
0	919	533.662725862372	2
0	923	545.729414156605	1
0	925	545.729414156605	2
0	929	554.713118675982	1
0	931	554.713118675982	2
0	933	557.248917538013	1
0	935	557.248917538013	2
0	937	558.430397405996	1
0	939	558.430397405996	2
0	947	560.493909345956	1
0	949	560.493909345956	2
0	953	569.607992545763	1
0	955	569.607992545763	2
0	957	571.298432157266	1
0	959	571.298432157266	2
0	961	571.73335002086	1
0	963	571.73335002086	2
0	969	572.82495344959	1
0	971	572.82495344959	2
0	975	576.692746160426	1
0	977	576.692746160426	2
0	983	581.688642787275	1
0	985	581.688642787275	2
0	987	581.873481634212	1
0	989	581.873481634212	2
0	991	582.103892216522	1
0	993	582.103892216522	2
0	1001	590.463093001994	1
0	1003	590.463093001994	2
0	1007	597.184958425487	1
0	1009	597.184958425487	2
0	1013	601.87704105994	1
0	1015	601.87704105994	2
0	1017	604.045759416923	1
0	1019	604.045759416923	2
0	1021	604.837765391565	1
0	1023	604.837765391565	2
0	1027	605.964026499256	1
0	1029	605.964026499256	2
0	1037	619.215984541164	1
0	1039	619.215984541164	2
0	1041	619.383942472408	1
0	1043	619.383942472408	2
0	1049	628.969936928236	1
0	1051	628.969936928236	2
0	1053	632.969265568797	1
0	1055	632.969265568797	2
0	1061	637.860986776748	1
0	1063	637.860986776748	2
0	1065	638.929827282015	1
0	1067	638.929827282015	2
0	1071	641.081860244015	1
0	1073	641.081860244015	2
0	1077	642.971386236275	1
0	1079	642.971386236275	2
0	1083	646.445837443167	1
0	1085	646.445837443167	2
0	1089	650.748890201141	1
0	1091	650.748890201141	2
0	1097	656.602188529532	1
0	1099	656.602188529532	2
0	1103	663.037476114951	1
0	1105	663.037476114951	2
0	1107	665.065312858615	1
0	1109	665.065312858615	2
0	1115	671.647864953583	1
0	1117	671.647864953583	2
0	1121	675.984489701563	1
0	1123	675.984489701563	2
0	1127	684.315740302885	1
0	1129	684.315740302885	2
0	1133	685.763071360775	1
0	1135	685.763071360775	2
0	1139	687.230541203848	1
0	1141	687.230541203848	2
0	1143	687.671418652711	1
0	1145	687.671418652711	2
0	1147	688.397488951956	1
0	1149	688.397488951956	2
0	1153	690.308387467823	1
0	1155	690.308387467823	2
0	1161	695.722647853209	1
0	1163	695.722647853209	2
0	1165	697.420199722436	1
0	1167	697.420199722436	2
0	1173	699.117654007359	1
0	1175	699.117654007359	2
0	1179	700.546772050687	1
0	1181	700.546772050687	2
0	1187	700.865605415815	1
0	1189	700.865605415815	2
0	1191	702.244819378534	1
0	1193	702.244819378534	2
0	1197	703.725075281154	1
0	1199	703.725075281154	2
0	1205	713.628228629828	1
0	1207	713.628228629828	2
0	1209	719.110656404903	1
0	1211	719.110656404903	2
0	1213	720.193258441932	1
0	1215	720.193258441932	2
0	1223	736.082008710445	1
0	1225	736.082008710445	2
0	1227	736.116630203992	1
0	1229	736.116630203992	2
0	1233	737.406609948722	1
0	1235	737.406609948722	2
0	1241	742.039048576661	1
0	1243	742.039048576661	2
0	1245	744.346921217557	1
0	1247	744.346921217557	2
0	1251	748.211456285003	1
0	1253	748.211456285003	2
0	1255	748.962113893752	1
0	1257	748.962113893752	2
0	1263	753.996143588154	1
0	1265	753.996143588154	2
0	1271	767.096758368468	1
0	1273	767.096758368468	2
0	1275	767.89834597395	1
0	1277	767.89834597395	2
0	1283	772.227852674834	1
0	1285	772.227852674834	2
0	1289	774.688229541751	1
0	1291	774.688229541751	2
0	1295	784.403877226069	1
0	1297	784.403877226069	2
0	1301	791.388007536317	1
0	1303	791.388007536317	2
0	1307	799.5470135404	1
0	1309	799.5470135404	2
0	1313	803.275660462142	1
0	1315	803.275660462142	2
0	1317	805.47312982573	1
0	1319	805.47312982573	2
0	1325	811.215187733718	1
0	1327	811.215187733718	2
0	1331	814.403618435014	1
0	1333	814.403618435014	2
0	1335	815.143765368427	1
0	1337	815.143765368427	2
0	1343	819.462844630824	1
0	1345	819.462844630824	2
0	1347	820.090125841777	1
0	1349	820.090125841777	2
0	1355	824.754488422636	1
0	1357	824.754488422636	2
0	1359	825.104080765623	1
0	1361	825.104080765623	2
0	1363	827.353469955491	1
0	1365	827.353469955491	2
0	1373	840.369026576195	1
0	1375	840.369026576195	2
0	1379	843.01126894196	1
0	1381	843.01126894196	2
0	1383	849.723309079106	1
0	1385	849.723309079106	2
0	1387	850.946362940188	1
0	1389	850.946362940188	2
0	1395	853.987797992236	1
0	1397	853.987797992236	2
0	1401	855.295757499437	1
0	1403	855.295757499437	2
0	1407	857.970482657382	1
0	1409	857.970482657382	2
0	1413	860.408243499317	1
0	1415	860.408243499317	2
0	1419	864.260744168593	1
0	1421	864.260744168593	2
0	1423	864.342270558109	1
0	1425	864.342270558109	2
0	1427	864.367358459198	1
0	1429	864.367358459198	2
0	1433	864.978062196039	1
0	1435	864.978062196039	2
0	1445	876.782759124659	1
0	1447	876.782759124659	2
0	1449	884.003015028837	1
0	1451	884.003015028837	2
0	1457	892.532609285688	1
0	1459	892.532609285688	2
0	1463	895.488822294789	1
0	1465	895.488822294789	2
0	1469	899.442124468501	1
0	1471	899.442124468501	2
0	1473	900.647416311477	1
0	1475	900.647416311477	2
0	1481	913.690218996008	1
0	1483	913.690218996008	2
0	1487	919.254488835679	1
0	1489	919.254488835679	2
0	1493	923.017674274629	1
0	1495	923.017674274629	2
0	1499	928.086802002006	1
0	1501	928.086802002006	2
0	1505	936.122259668623	1
0	1507	936.122259668623	2
0	1511	943.878578408258	1
0	1513	943.878578408258	2
0	1515	945.207233061355	1
0	1517	945.207233061355	2
0	1523	950.752358832667	1
0	1525	950.752358832667	2
0	1529	952.703752366892	1
0	1531	952.703752366892	2
0	1533	954.701840236693	1
0	1535	954.701840236693	2
0	1537	955.175551871475	1
0	1539	955.175551871475	2
0	1541	955.388925104131	1
0	1543	955.388925104131	2
0	1549	957.404363402712	1
0	1551	957.404363402712	2
0	1555	960.431433279904	1
0	1557	960.431433279904	2
0	1559	960.602467313562	1
0	1561	960.602467313562	2
0	1569	962.575342986085	1
0	1571	962.575342986085	2
0	1575	964.940957330241	1
0	1577	964.940957330241	2
0	1583	971.3808924758	1
0	1585	971.3808924758	2
0	1589	979.156618343852	1
0	1591	979.156618343852	2
0	1595	980.060250770542	1
0	1597	980.060250770542	2
0	1601	981.15267948751	1
0	1603	981.15267948751	2
0	1605	982.301443779872	1
0	1607	982.301443779872	2
0	1611	989.454878909312	1
0	1613	989.454878909312	2
0	1617	992.049746287349	1
0	1619	992.049746287349	2
0	1625	994.864050700177	1
0	1627	994.864050700177	2
0	1629	996.505083897945	1
0	1631	996.505083897945	2
0	1635	998.769659231061	1
0	1637	998.769659231061	2
1	167	101.617593189988	23.827395540378
1	173	122.054807907084	33.550770108419
1	179	127.588651889904	25.971058699916
1	183	129.547921075817	7.493113168733
1	189	131.434300396538	3.845648506634
1	197	135.507177121026	5.959256045209
1	201	136.189455943929	4.755155547391
1	209	150.111470915086	14.60429379406
1	215	164.888339872726	28.698883928797
1	219	165.121833702485	15.010362787399
1	225	166.341380152895	1.453040280169
1	229	167.266845592335	2.14501188985
1	237	168.496655294369	2.155275141474
1	245	169.483698855533	2.216853263198
1	249	169.787945267971	1.291289973602
1	255	171.83865024656	2.354951391027
1	263	173.51106930709	3.723124039119
1	269	179.264772152815	7.426121906255
1	275	184.942022190142	11.430952883052
1	279	186.504237793068	7.239465640253
1	283	186.873061574306	1.931039384164
1	289	189.791613416457	3.287375623389
1	299	193.720247861935	6.847186287629
1	303	195.3238529444	5.532239527943
1	307	195.766485522762	2.046237660827
1	317	199.939236096852	4.615383152452
1	321	201.151909151199	5.385423628437
1	325	203.660237084089	3.721000987237
1	333	205.878105594805	4.726196443606
1	339	208.80660852953	5.146371445441
1	347	213.21926442193	7.341158827125
1	353	233.17347163949	24.36686310996
1	359	236.963587648905	23.744323226975
1	363	238.453703026261	5.280231386771
1	369	240.025413953718	3.061826304813
1	377	246.136876325866	7.683173299605
1	383	255.911607770735	15.886193817017
1	389	264.116204063939	17.979327738073
1	393	266.248118076895	10.33651030616
1	397	267.269079563774	3.152875499835
1	407	271.206805305525	4.95868722863
1	411	271.24295067206	3.973871108286
1	415	273.588850544956	2.382045239431
1	425	281.449658589602	10.206707917542
1	431	285.293632476081	11.704781931125
1	435	286.835820736885	5.386162147283
1	443	292.039230289743	6.745597813662
1	449	292.465289264292	5.629468527407
1	453	293.447909034422	1.408678744679
1	457	293.533644910584	1.068355646292
1	465	297.249871593774	3.801962559352
1	473	300.9760329277	7.442388017116
1	477	301.032135076555	3.782263482781
1	481	301.579270694006	0.603237766306
1	487	305.311953125728	4.279818049173
1	493	308.811935340921	7.232664646915
1	499	311.14700616602	5.835053040292
1	503	312.48974593912	3.677810598199
1	507	313.268493386391	2.121487220371
1	513	313.810127344062	1.320381404942
1	519	314.724637280254	1.456143893863
1	529	322.811931358299	9.001804014237
1	537	324.87199206102	10.147354780766
1	543	324.997871077333	2.185939719034
1	549	326.567628714174	1.695636653154
1	557	330.474087492148	5.476216414815
1	561	331.293755140237	4.726126426063
1	567	333.667934786506	3.193847294358
1	571	335.013715012616	3.719959872379
1	581	339.927537573939	6.259602787433
1	587	343.903613974749	8.889898962133
1	593	346.513336258014	6.585798684075
1	599	353.247171390009	9.34355741526
1	603	353.751927503504	7.23859124549
1	609	356.65981392428	3.412642534271
1	615	358.185562471628	4.433634968124
1	621	362.743489560047	6.083675635767
1	625	362.848662147862	4.663099676234
1	635	371.037969383755	8.294479823708
1	641	374.208926148167	11.360264000305
1	647	383.815184898675	12.77721551492
1	653	387.311201969815	13.102275821648
1	657	387.59853809996	3.783353201285
1	663	388.291418661147	0.980216691332
1	671	393.087754479041	5.489216379081
1	677	394.31416148485	6.022742823703
1	683	405.418823157023	12.331068677982
1	687	405.443417824246	11.129256339396
1	695	409.710077028464	4.291253871441
1	699	417.293838774574	11.850420950328
1	707	431.096654213825	21.386577185361
1	713	434.161625230345	16.867786455771
1	719	445.13176225514	14.035108041315
1	725	449.581801855866	15.420176625521
1	731	454.732796348694	9.601034093554
1	735	460.228617022994	10.646815167128
1	741	461.054708268334	6.32191191964
1	749	464.921544454364	4.69292743137
1	753	465.935883500768	4.881175232434
1	757	466.253200810601	1.331656356237
1	763	467.7990814023	1.863197901532
1	769	469.275563482183	3.022362671582
1	775	469.903709584643	2.104628182343
1	783	479.153828852823	9.87826537064
1	791	483.406584701742	13.502875117099
1	795	483.530175771561	4.376346918738
1	801	486.816956894214	3.410372192472
1	805	487.753635668018	4.223459896457
1	809	488.314172704222	1.497215810008
1	821	493.087034347073	5.333398679055
1	825	494.132903410866	5.818730706644
1	829	494.542127182554	1.455092835481
1	837	500.84583377592	6.712930365054
1	845	504.827966000218	10.285838817664
1	849	507.70100418208	6.85517040616
1	857	514.765817329024	9.937851328806
1	863	515.8886185387	8.18761435662
1	869	523.958380527261	9.192563198237
1	873	524.352359692758	8.463741154058
1	879	524.815212779914	0.856832252653
1	883	524.847011303599	0.494651610841
1	891	525.48317265386	0.667959873946
1	895	527.0369184799	2.189907176301
1	899	527.505268256446	2.022095602586
1	909	531.475136547933	4.438218068033
1	917	533.662725862372	6.157457605926
1	923	545.729414156605	14.254277608672
1	929	554.713118675982	21.05039281361
1	933	557.248917538013	11.519503381408
1	937	558.430397405996	3.717278730014
1	947	560.493909345956	3.244991807943
1	953	569.607992545763	11.177595139767
1	957	571.298432157266	10.80452281131
1	961	571.73335002086	2.125357475097
1	969	572.82495344959	1.526521292324
1	975	576.692746160426	4.959396139566
1	983	581.688642787275	8.863689337685
1	987	581.873481634212	5.180735473786
1	991	582.103892216522	0.415249429247
1	1001	590.463093001994	8.589611367782
1	1007	597.184958425487	15.081066208965
1	1013	601.87704105994	11.413948057946
1	1017	604.045759416923	6.860800991436
1	1021	604.837765391565	2.960724331625
1	1027	605.964026499256	1.918267082333
1	1037	619.215984541164	14.378219149599
1	1041	619.383942472408	13.419915973152
1	1049	628.969936928236	9.753952387072
1	1053	632.969265568797	13.585323096389
1	1061	637.860986776748	8.891049848512
1	1065	638.929827282015	5.960561713218
1	1071	641.081860244015	3.220873467267
1	1077	642.971386236275	4.04155895426
1	1083	646.445837443167	5.363977199152
1	1089	650.748890201141	7.777503964866
1	1097	656.602188529532	10.156351086365
1	1103	663.037476114951	12.28858591381
1	1107	665.065312858615	8.463124329083
1	1115	671.647864953583	8.610388838632
1	1121	675.984489701563	10.919176842948
1	1127	684.315740302885	12.667875349302
1	1133	685.763071360775	9.778581659212
1	1139	687.230541203848	2.914800900963
1	1143	687.671418652711	1.908347291936
1	1147	688.397488951956	1.166947748108
1	1153	690.308387467823	2.636968815112
1	1161	695.722647853209	7.325158901253
1	1165	697.420199722436	7.111812254613
1	1173	699.117654007359	3.39500615415
1	1179	700.546772050687	3.126572328251
1	1187	700.865605415815	1.747951408456
1	1191	702.244819378534	1.698047327847
1	1197	703.725075281154	2.859469865339
1	1205	713.628228629828	11.383409251294
1	1209	719.110656404903	15.385581123749
1	1213	720.193258441932	6.565029812104
1	1223	736.082008710445	16.971352305542
1	1227	736.116630203992	15.92337176206
1	1233	737.406609948722	1.324601238277
1	1241	742.039048576661	5.922418372669
1	1245	744.346921217557	6.940311268835
1	1251	748.211456285003	6.172407708342
1	1255	748.962113893752	4.615192676195
1	1263	753.996143588154	5.784687303151
1	1271	767.096758368468	18.134644474716
1	1275	767.89834597395	13.902202385796
1	1283	772.227852674834	5.131094306366
1	1289	774.688229541751	6.789883567801
1	1295	784.403877226069	12.176024551235
1	1301	791.388007536317	16.699777994566
1	1307	799.5470135404	15.143136314331
1	1313	803.275660462142	11.887652925825
1	1317	805.47312982573	5.92611628533
1	1325	811.215187733718	7.939527271576
1	1331	814.403618435014	8.930488609284
1	1335	815.143765368427	3.928577634709
1	1343	819.462844630824	5.05922619581
1	1347	820.090125841777	4.94636047335
1	1355	824.754488422636	5.291643791812
1	1359	825.104080765623	5.013954923846
1	1363	827.353469955491	2.598981532855
1	1373	840.369026576195	15.264945810572
1	1379	843.01126894196	15.657798986469
1	1383	849.723309079106	9.354282502911
1	1387	850.946362940188	7.935093998228
1	1395	853.987797992236	4.26448891313
1	1401	855.295757499437	4.349394559249
1	1407	857.970482657382	3.982684665146
1	1413	860.408243499317	5.11248599988
1	1419	864.260744168593	6.290261511211
1	1423	864.342270558109	3.934027058792
1	1427	864.367358459198	0.106614290605
1	1433	864.978062196039	0.63579163793
1	1445	876.782759124659	12.415400665461
1	1449	884.003015028837	19.024952832798
1	1457	892.532609285688	15.749850161029
1	1463	895.488822294789	11.485807265952
1	1469	899.442124468501	6.909515182813
1	1473	900.647416311477	5.158594016688
1	1481	913.690218996008	14.248094527507
1	1487	919.254488835679	18.607072524202
1	1493	923.017674274629	9.327455278621
1	1499	928.086802002006	8.832313166327
1	1505	936.122259668623	13.104585393994
1	1511	943.878578408258	15.791776406252
1	1515	945.207233061355	9.084973392732
1	1523	950.752358832667	6.873780424409
1	1529	952.703752366892	7.496519305537
1	1533	954.701840236693	3.949481404026
1	1537	955.175551871475	2.471799504583
1	1541	955.388925104131	0.687084867438
1	1549	957.404363402712	2.228811531237
1	1555	960.431433279904	5.042508175773
1	1559	960.602467313562	3.19810391085
1	1569	962.575342986085	2.143909706181
1	1575	964.940957330241	4.338490016679
1	1583	971.3808924758	8.805549489715
1	1589	979.156618343852	14.215661013611
1	1595	980.060250770542	8.679358294742
1	1601	981.15267948751	1.996061143658
1	1605	982.301443779872	2.24119300933
1	1611	989.454878909312	8.302199421802
1	1617	992.049746287349	9.748302507477
1	1625	994.864050700177	5.409171790865
1	1629	996.505083897945	4.455337610596
1	1635	998.769659231061	3.905608530884
2	168	101.617593189988	6
2	172	101.69854882817	7
2	174	122.054807907084	6
2	178	124.099347981632	7
2	180	127.588651889904	6
2	184	129.547921075817	5
2	188	130.919715584756	6
2	190	131.434300396538	5
2	194	132.988905704554	6
2	196	133.607484097595	7
2	198	135.507177121026	6
2	202	136.189455943929	5
2	206	137.425308994369	6
2	208	137.653480174391	7
2	210	150.111470915086	6
2	214	154.200810377844	7
2	216	164.888339872726	6
2	220	165.121833702485	5
2	224	166.113336893732	6
2	226	166.341380152895	5
2	230	167.266845592335	4
2	234	167.481357313145	5
2	236	167.83668668812	6
2	238	168.496655294369	5
2	242	168.5419383392	6
2	244	169.339099663562	7
2	246	169.483698855533	6
2	250	169.787945267971	5
2	254	170.50302458491	6
2	256	171.83865024656	5
2	260	172.771679075446	6
2	262	173.075188668729	7
2	264	173.51106930709	6
2	268	174.915776467869	7
2	270	179.264772152815	6
2	274	181.818307856203	7
2	276	184.942022190142	6
2	280	186.504237793068	5
2	284	186.873061574306	4
2	288	187.407503620372	5
2	290	189.791613416457	4
2	294	189.864967271377	5
2	296	191.631613687471	6
2	298	192.421736986077	7
2	300	193.720247861935	6
2	304	195.3238529444	5
2	308	195.766485522762	4
2	312	196.246925223236	5
2	314	197.010156240646	6
2	316	198.326770389738	7
2	318	199.939236096852	6
2	322	201.151909151199	5
2	326	203.660237084089	4
2	330	204.991228878338	5
2	332	205.701295042024	6
2	334	205.878105594805	5
2	338	206.094180928012	6
2	340	208.80660852953	5
2	344	210.16989705848	6
2	346	211.477149415688	7
2	348	213.21926442193	6
2	352	213.366302318362	7
2	354	233.17347163949	6
2	358	234.093641428579	7
2	360	236.963587648905	6
2	364	238.453703026261	5
2	368	238.8337076148	6
2	370	240.025413953718	5
2	374	241.153584740369	6
2	376	241.999897260487	7
2	378	246.136876325866	6
2	382	247.999561222551	7
2	384	255.911607770735	6
2	388	261.0508017732	7
2	390	264.116204063939	6
2	394	266.248118076895	5
2	398	267.269079563774	4
2	402	267.422954803336	5
2	404	267.576908546906	6
2	406	269.848895857916	7
2	408	271.206805305525	6
2	412	271.24295067206	5
2	416	273.588850544956	4
2	420	273.965402024396	5
2	422	274.033748114794	6
2	424	274.211125803032	7
2	426	281.449658589602	6
2	430	284.336670644499	7
2	432	285.293632476081	6
2	436	286.835820736885	5
2	440	287.300916387118	6
2	442	287.33411027404	7
2	444	292.039230289743	6
2	448	292.133150925792	7
2	450	292.465289264292	6
2	454	293.447909034422	5
2	458	293.533644910584	4
2	462	293.710140147323	5
2	464	294.338431559338	6
2	466	297.249871593774	5
2	470	298.72151065468	6
2	472	300.863602209278	7
2	474	300.9760329277	6
2	478	301.032135076555	5
2	482	301.579270694006	4
2	486	302.301316016071	5
2	488	305.311953125728	4
2	492	307.934343657845	5
2	494	308.811935340921	4
2	498	309.99910425404	5
2	500	311.14700616602	4
2	504	312.48974593912	3
2	508	313.268493386391	2
2	512	313.797696377441	3
2	514	313.810127344062	2
2	518	313.921695321604	3
2	520	314.724637280254	2
2	524	315.189052981688	3
2	526	315.823630070434	4
2	528	318.498440439693	5
2	530	322.811931358299	4
2	534	323.742000055232	5
2	536	324.062404098696	6
2	538	324.87199206102	5
2	542	324.936976148947	6
2	544	324.997871077333	5
2	548	325.90148231014	6
2	550	326.567628714174	5
2	554	326.723574594212	6
2	556	328.045077990928	7
2	558	330.474087492148	6
2	562	331.293755140237	5
2	566	331.372309203383	6
2	568	333.667934786506	5
2	572	335.013715012616	4
2	576	335.236605074527	5
2	578	335.943482826027	6
2	580	338.682710162209	7
2	582	339.927537573939	6
2	586	343.455583815154	7
2	588	343.903613974749	6
2	592	344.27720153962	7
2	594	346.513336258014	6
2	598	347.158536933728	7
2	600	353.247171390009	6
2	604	353.751927503504	5
2	608	354.868217599388	6
2	610	356.65981392428	5
2	614	357.797638434779	6
2	616	358.185562471628	5
2	620	360.551460730599	6
2	622	362.743489560047	5
2	626	362.848662147862	4
2	630	363.121225866155	5
2	632	364.326187299338	6
2	634	365.000633599886	7
2	636	371.037969383755	6
2	640	371.531200802468	7
2	642	374.208926148167	6
2	646	374.641750921148	7
2	648	383.815184898675	6
2	652	383.861915136064	7
2	654	387.311201969815	6
2	658	387.59853809996	5
2	662	387.903472024723	6
2	664	388.291418661147	5
2	668	388.740538524625	6
2	670	390.04261099611	7
2	672	393.087754479041	6
2	676	393.820351650162	7
2	678	394.31416148485	6
2	682	399.575859856171	7
2	684	405.418823157023	6
2	688	405.443417824246	5
2	692	406.385208042819	6
2	694	408.835117891818	7
2	696	409.710077028464	6
2	700	417.293838774574	5
2	704	419.143662945497	6
2	706	429.587497053608	7
2	708	431.096654213825	6
2	712	432.152900574016	7
2	714	434.161625230345	6
2	718	437.060325671013	7
2	720	445.13176225514	6
2	724	445.693973996595	7
2	726	449.581801855866	6
2	730	449.903360313143	7
2	732	454.732796348694	6
2	736	460.228617022994	5
2	740	460.379527344753	6
2	742	461.054708268334	5
2	746	461.527381621603	6
2	748	461.733361966635	7
2	750	464.921544454364	6
2	754	465.935883500768	5
2	758	466.253200810601	4
2	762	466.450395965132	5
2	764	467.7990814023	4
2	768	468.620069561953	5
2	770	469.275563482183	4
2	774	469.646743837083	5
2	776	469.903709584643	4
2	780	470.552953507767	5
2	782	470.915990127867	6
2	784	479.153828852823	5
2	788	481.236952605521	6
2	790	482.817916387963	7
2	792	483.406584701742	6
2	796	483.530175771561	5
2	800	485.086675443761	6
2	802	486.816956894214	5
2	806	487.753635668018	4
2	810	488.314172704222	3
2	814	488.676110252717	4
2	816	489.008016087876	5
2	818	492.300765872317	6
2	820	492.924254330462	7
2	822	493.087034347073	6
2	826	494.132903410866	5
2	830	494.542127182554	4
2	834	495.511090342182	5
2	836	498.80889064973	6
2	838	500.84583377592	5
2	842	501.457578001871	6
2	844	501.889876063767	7
2	846	504.827966000218	6
2	850	507.70100418208	5
2	854	507.877362576178	6
2	856	512.374539217177	7
2	858	514.765817329024	6
2	862	515.546523521712	7
2	864	515.8886185387	6
2	868	519.735193934825	7
2	870	523.958380527261	6
2	874	524.352359692758	5
2	878	524.507600161561	6
2	880	524.815212779914	5
2	884	524.847011303599	4
2	888	524.909891378877	5
2	890	524.926406611553	6
2	892	525.48317265386	5
2	896	527.0369184799	4
2	900	527.505268256446	3
2	904	528.347336999687	4
2	906	528.428895403583	5
2	908	529.922716068176	6
2	910	531.475136547933	5
2	914	531.609953984702	6
2	916	532.930019070479	7
2	918	533.662725862372	6
2	922	542.708894335623	7
2	924	545.729414156605	6
2	928	551.410355535724	7
2	930	554.713118675982	6
2	934	557.248917538013	5
2	938	558.430397405996	4