version 3
run General-43-20221103-10:28:22-6760
attr configname General
attr datetime 20221103-10:28:22
attr datetimef 20221103-102822
attr experiment General
attr inifile block.ini
attr iterationvars "$0=4, $1=30"
attr iterationvarsd 4/30
attr iterationvarsf 4,30-
attr measurement "$0=4, $1=30"
attr network Block
attr processid 6760
attr repetition 3
attr replication #3
attr resultdir results
attr runnumber 43
attr seedset 43
config network Block
config repeat 5
config sim-time-limit 1000s
config warmup-period 100s
config **.alloca.resourceModuleName "\"risorse\""
config **.dealloca.resourceModuleName "\"risorse\""
config **.is.delay exponential(3s)
config **.servente.serviceTime exponential(4s)
config **.dealloca.resourceAmount 2
config **.alloca.resourceAmount 2
config **.risorse.amount 6
config **.sorgente.numJobs (30)
config **.result-recording-modes all

vector 0 Block.servente queueLength:vector ETV
attr interpolationmode sample-hold
attr recordingmode vector
attr title "queue length"
vector 1 Block.servente queueingTime:vector ETV
attr interpolationmode none
attr recordingmode vector
attr title "queueing time at dequeue"
attr unit s
vector 2 Block.alloca queueLength:vector ETV
attr interpolationmode sample-hold
attr recordingmode vector
attr title "queue length"
vector 3 Block.alloca queueingTime:vector ETV
attr interpolationmode none
attr recordingmode vector
attr title "queueing time at dequeue"
attr unit s
vector 4 Block.risorse amount:vector ETV
attr interpolationmode sample-hold
attr recordingmode vector
attr title "available resource"
vector 5 Block.is delayedJobs:vector ETV
attr interpolationmode sample-hold
attr recordingmode vector
attr title "number of delayed jobs"
0	249	100.458975578682	1
0	251	100.458975578682	2
0	255	103.020730087251	1
0	257	103.020730087251	2
0	263	106.776899601795	1
0	265	106.776899601795	2
0	267	108.005791377653	1
0	269	108.005791377653	2
0	275	118.208718190148	1
0	277	118.208718190148	2
0	281	128.978320654818	1
0	283	128.978320654818	2
0	285	129.557599472933	1
0	287	129.557599472933	2
0	293	136.086599885824	1
0	295	136.086599885824	2
0	297	146.035947620109	1
0	299	146.035947620109	2
0	301	149.076805515285	1
0	303	149.076805515285	2
0	307	150.549231752286	1
0	309	150.549231752286	2
0	317	154.263049765116	1
0	319	154.263049765116	2
0	323	160.247792742479	1
0	325	160.247792742479	2
0	327	162.113350069723	1
0	329	162.113350069723	2
0	335	165.445062675829	1
0	337	165.445062675829	2
0	339	165.653269186796	1
0	341	165.653269186796	2
0	343	167.947901370848	1
0	345	167.947901370848	2
0	353	173.929931394685	1
0	355	173.929931394685	2
0	357	173.931378170689	1
0	359	173.931378170689	2
0	365	180.884084525526	1
0	367	180.884084525526	2
0	371	187.561220305596	1
0	373	187.561220305596	2
0	377	196.669831840387	1
0	379	196.669831840387	2
0	383	199.580029460106	1
0	385	199.580029460106	2
0	389	205.944847274332	1
0	391	205.944847274332	2
0	395	208.008018084432	1
0	397	208.008018084432	2
0	401	218.086221668227	1
0	403	218.086221668227	2
0	407	222.862790879824	1
0	409	222.862790879824	2
0	411	223.078805020851	1
0	413	223.078805020851	2
0	419	236.026541630114	1
0	421	236.026541630114	2
0	425	241.491532543319	1
0	427	241.491532543319	2
0	431	243.762685210557	1
0	433	243.762685210557	2
0	437	263.537260841312	1
0	439	263.537260841312	2
0	441	267.007340211571	1
0	443	267.007340211571	2
0	449	276.290738789828	1
0	451	276.290738789828	2
0	455	286.929085686395	1
0	457	286.929085686395	2
0	459	288.404674796394	1
0	461	288.404674796394	2
0	465	294.035543121806	1
0	467	294.035543121806	2
0	473	305.237735310746	1
0	475	305.237735310746	2
0	477	305.808743254676	1
0	479	305.808743254676	2
0	485	315.694870937042	1
0	487	315.694870937042	2
0	489	316.933040455817	1
0	491	316.933040455817	2
0	493	319.142581416015	1
0	495	319.142581416015	2
0	499	322.093809629294	1
0	501	322.093809629294	2
0	507	332.952462746694	1
0	509	332.952462746694	2
0	515	341.975230319287	1
0	517	341.975230319287	2
0	521	343.377097201031	1
0	523	343.377097201031	2
0	527	352.852798247539	1
0	529	352.852798247539	2
0	533	356.933884672175	1
0	535	356.933884672175	2
0	539	367.19517793113	1
0	541	367.19517793113	2
0	543	368.414906384759	1
0	545	368.414906384759	2
0	549	374.759096475374	1
0	551	374.759096475374	2
0	555	375.119963947259	1
0	557	375.119963947259	2
0	561	381.99488743954	1
0	563	381.99488743954	2
0	569	392.272758745095	1
0	571	392.272758745095	2
0	575	395.000789813975	1
0	577	395.000789813975	2
0	579	399.400748773307	1
0	581	399.400748773307	2
0	587	402.410483931404	1
0	589	402.410483931404	2
0	591	403.732215784149	1
0	593	403.732215784149	2
0	599	408.290975737987	1
0	601	408.290975737987	2
0	605	409.253515741446	1
0	607	409.253515741446	2
0	609	410.11204120369	1
0	611	410.11204120369	2
0	615	410.903599861924	1
0	617	410.903599861924	2
0	623	412.484809318747	1
0	625	412.484809318747	2
0	629	422.255139095332	1
0	631	422.255139095332	2
0	633	422.544907770873	1
0	635	422.544907770873	2
0	639	428.599096957904	1
0	641	428.599096957904	2
0	643	430.55013505724	1
0	645	430.55013505724	2
0	647	430.604007743763	1
0	649	430.604007743763	2
0	655	431.931346683914	1
0	657	431.931346683914	2
0	665	437.811311684939	1
0	667	437.811311684939	2
0	669	438.091836820904	1
0	671	438.091836820904	2
0	677	446.030255876572	1
0	679	446.030255876572	2
0	681	449.85777334124	1
0	683	449.85777334124	2
0	689	452.316491881476	1
0	691	452.316491881476	2
0	695	456.730626688715	1
0	697	456.730626688715	2
0	701	460.482796343962	1
0	703	460.482796343962	2
0	705	461.128120313449	1
0	707	461.128120313449	2
0	711	463.575593597178	1
0	713	463.575593597178	2
0	719	465.802334519012	1
0	721	465.802334519012	2
0	725	469.876121181598	1
0	727	469.876121181598	2
0	729	470.063388232446	1
0	731	470.063388232446	2
0	735	471.171159797143	1
0	737	471.171159797143	2
0	743	478.663384598047	1
0	745	478.663384598047	2
0	749	481.28726576662	1
0	751	481.28726576662	2
0	755	485.378934489492	1
0	757	485.378934489492	2
0	759	488.050769062321	1
0	761	488.050769062321	2
0	763	491.480023628269	1
0	765	491.480023628269	2
0	771	493.651847084686	1
0	773	493.651847084686	2
0	779	497.106388850855	1
0	781	497.106388850855	2
0	785	512.318629635125	1
0	787	512.318629635125	2
0	791	518.319040670804	1
0	793	518.319040670804	2
0	797	527.499431817695	1
0	799	527.499431817695	2
0	803	538.131792821243	1
0	805	538.131792821243	2
0	807	539.524146026526	1
0	809	539.524146026526	2
0	811	540.083080963883	1
0	813	540.083080963883	2
0	819	541.131604623581	1
0	821	541.131604623581	2
0	827	544.066691688966	1
0	829	544.066691688966	2
0	831	545.31054007507	1
0	833	545.31054007507	2
0	839	552.376599577652	1
0	841	552.376599577652	2
0	845	554.586246476082	1
0	847	554.586246476082	2
0	851	558.089322975558	1
0	853	558.089322975558	2
0	857	560.424348805327	1
0	859	560.424348805327	2
0	863	565.559851943247	1
0	865	565.559851943247	2
0	869	567.198652871179	1
0	871	567.198652871179	2
0	875	570.876296808374	1
0	877	570.876296808374	2
0	881	576.839586289132	1
0	883	576.839586289132	2
0	885	576.944029440381	1
0	887	576.944029440381	2
0	893	585.489350948548	1
0	895	585.489350948548	2
0	899	585.946126571445	1
0	901	585.946126571445	2
0	903	587.265691057091	1
0	905	587.265691057091	2
0	911	593.32017114951	1
0	913	593.32017114951	2
0	917	606.364993530016	1
0	919	606.364993530016	2
0	923	617.488007218936	1
0	925	617.488007218936	2
0	929	623.731283316779	1
0	931	623.731283316779	2
0	935	636.336504031403	1
0	937	636.336504031403	2
0	939	637.787755000751	1
0	941	637.787755000751	2
0	945	643.734808470055	1
0	947	643.734808470055	2
0	951	648.871627117315	1
0	953	648.871627117315	2
0	957	651.998297045711	1
0	959	651.998297045711	2
0	961	653.028632582952	1
0	963	653.028632582952	2
0	969	658.684453152299	1
0	971	658.684453152299	2
0	975	660.607631446391	1
0	977	660.607631446391	2
0	983	669.626662731122	1
0	985	669.626662731122	2
0	989	674.644709630192	1
0	991	674.644709630192	2
0	995	681.404652137103	1
0	997	681.404652137103	2
0	999	685.291346471732	1
0	1001	685.291346471732	2
0	1005	686.652576532254	1
0	1007	686.652576532254	2
0	1011	689.451179976787	1
0	1013	689.451179976787	2
0	1015	690.556135245287	1
0	1017	690.556135245287	2
0	1019	692.521705546946	1
0	1021	692.521705546946	2
0	1027	694.646126800943	1
0	1029	694.646126800943	2
0	1031	694.74790813368	1
0	1033	694.74790813368	2
0	1037	699.172164909985	1
0	1039	699.172164909985	2
0	1045	706.892504834506	1
0	1047	706.892504834506	2
0	1053	712.869560783758	1
0	1055	712.869560783758	2
0	1061	716.339392017118	1
0	1063	716.339392017118	2
0	1065	717.614433465964	1
0	1067	717.614433465964	2
0	1069	718.087837144201	1
0	1071	718.087837144201	2
0	1073	718.787384036436	1
0	1075	718.787384036436	2
0	1081	721.117215905287	1
0	1083	721.117215905287	2
0	1087	721.857590175281	1
0	1089	721.857590175281	2
0	1097	734.091222009212	1
0	1099	734.091222009212	2
0	1101	736.039565999764	1
0	1103	736.039565999764	2
0	1109	737.590937492692	1
0	1111	737.590937492692	2
0	1115	751.334425685793	1
0	1117	751.334425685793	2
0	1121	752.864147636306	1
0	1123	752.864147636306	2
0	1125	753.025064417409	1
0	1127	753.025064417409	2
0	1131	755.746677330321	1
0	1133	755.746677330321	2
0	1139	761.337591655722	1
0	1141	761.337591655722	2
0	1145	766.481593077147	1
0	1147	766.481593077147	2
0	1151	769.967933554255	1
0	1153	769.967933554255	2
0	1157	777.685427030168	1
0	1159	777.685427030168	2
0	1161	777.859051016956	1
0	1163	777.859051016956	2
0	1169	782.393926770387	1
0	1171	782.393926770387	2
0	1173	783.77331397354	1
0	1175	783.77331397354	2
0	1181	799.543424943341	1
0	1183	799.543424943341	2
0	1187	801.328793589243	1
0	1189	801.328793589243	2
0	1193	804.498524005441	1
0	1195	804.498524005441	2
0	1197	805.829046599348	1
0	1199	805.829046599348	2
0	1201	806.462245435399	1
0	1203	806.462245435399	2
0	1205	809.34874641025	1
0	1207	809.34874641025	2
0	1209	811.976114627659	1
0	1211	811.976114627659	2
0	1213	812.038480130151	1
0	1215	812.038480130151	2
0	1217	813.095644819266	1
0	1219	813.095644819266	2
0	1233	818.408717972564	1
0	1235	818.408717972564	2
0	1241	823.146019609301	1
0	1243	823.146019609301	2
0	1245	823.381823137048	1
0	1247	823.381823137048	2
0	1249	825.935624389725	1
0	1251	825.935624389725	2
0	1255	829.355097167837	1
0	1257	829.355097167837	2
0	1261	830.679707480253	1
0	1263	830.679707480253	2
0	1269	833.759117705468	1
0	1271	833.759117705468	2
0	1277	841.362506503982	1
0	1279	841.362506503982	2
0	1283	841.521135528295	1
0	1285	841.521135528295	2
0	1289	848.202502803944	1
0	1291	848.202502803944	2
0	1295	853.625043361503	1
0	1297	853.625043361503	2
0	1301	856.685559814389	1
0	1303	856.685559814389	2
0	1305	857.434635932155	1
0	1307	857.434635932155	2
0	1313	862.424154992109	1
0	1315	862.424154992109	2
0	1319	864.470046480532	1
0	1321	864.470046480532	2
0	1325	867.228985256744	1
0	1327	867.228985256744	2
0	1329	867.706919068396	1
0	1331	867.706919068396	2
0	1333	868.737699890302	1
0	1335	868.737699890302	2
0	1343	872.458280610482	1
0	1345	872.458280610482	2
0	1349	877.210590304269	1
0	1351	877.210590304269	2
0	1355	885.449300178939	1
0	1357	885.449300178939	2
0	1359	885.552041250225	1
0	1361	885.552041250225	2
0	1365	885.85747474762	1
0	1367	885.85747474762	2
0	1369	886.700425650142	1
0	1371	886.700425650142	2
0	1375	888.513596395346	1
0	1377	888.513596395346	2
0	1383	891.484274879744	1
0	1385	891.484274879744	2
0	1391	894.642359150301	1
0	1393	894.642359150301	2
0	1395	895.75882450194	1
0	1397	895.75882450194	2
0	1403	904.722197354179	1
0	1405	904.722197354179	2
0	1409	914.042201678745	1
0	1411	914.042201678745	2
0	1413	915.00500347995	1
0	1415	915.00500347995	2
0	1421	928.926715037711	1
0	1423	928.926715037711	2
0	1427	931.934592839222	1
0	1429	931.934592839222	2
0	1433	937.007903481958	1
0	1435	937.007903481958	2
0	1439	943.805694707453	1
0	1441	943.805694707453	2
0	1445	951.424946716028	1
0	1447	951.424946716028	2
0	1451	955.134832975823	1
0	1453	955.134832975823	2
0	1455	957.107843533252	1
0	1457	957.107843533252	2
0	1463	961.331168230365	1
0	1465	961.331168230365	2
0	1469	968.206608318394	1
0	1471	968.206608318394	2
0	1475	969.288855783166	1
0	1477	969.288855783166	2
0	1479	969.533436481049	1
0	1481	969.533436481049	2
0	1483	970.257409172386	1
0	1485	970.257409172386	2
0	1491	974.901620348759	1
0	1493	974.901620348759	2
0	1499	980.367954050146	1
0	1501	980.367954050146	2
0	1503	983.012585745171	1
0	1505	983.012585745171	2
0	1511	987.655482576117	1
0	1513	987.655482576117	2
0	1517	992.097701546682	1
0	1519	992.097701546682	2
0	1523	996.621311652373	1
0	1525	996.621311652373	2
1	249	100.458975578682	11.76026347431
1	255	103.020730087251	3.228138161668
1	263	106.776899601795	6.317924023113
1	267	108.005791377653	4.985061290402
1	275	118.208718190148	11.431818588353
1	281	128.978320654818	20.972529277165
1	285	129.557599472933	11.348881282785
1	293	136.086599885824	7.108279231006
1	297	146.035947620109	16.478348147176
1	301	149.076805515285	12.990205629461
1	307	150.549231752286	4.513284132177
1	317	154.263049765116	5.186244249831
1	323	160.247792742479	9.698560990193
1	327	162.113350069723	7.850300304607
1	335	165.445062675829	5.19726993335
1	339	165.653269186796	3.539919117073
1	343	167.947901370848	2.502838695019
1	353	173.929931394685	8.276662207889
1	357	173.931378170689	5.983476799841
1	365	180.884084525526	6.954153130841
1	371	187.561220305596	13.629842134907
1	377	196.669831840387	15.785747314861
1	383	199.580029460106	12.01880915451
1	389	205.944847274332	9.275015433945
1	395	208.008018084432	8.427988624326
1	401	218.086221668227	12.141374393895
1	407	222.862790879824	14.854772795392
1	411	223.078805020851	4.992583352624
1	419	236.026541630114	13.16375075029
1	425	241.491532543319	18.412727522468
1	431	243.762685210557	7.736143580443
1	437	263.537260841312	22.045728297993
1	441	267.007340211571	23.244655001014
1	449	276.290738789828	12.753477948516
1	455	286.929085686395	19.921745474824
1	459	288.404674796394	12.113936006566
1	465	294.035543121806	7.106457435411
1	473	305.237735310746	16.833060514352
1	477	305.808743254676	11.77320013287
1	485	315.694870937042	10.457135626296
1	489	316.933040455817	11.124297201141
1	493	319.142581416015	3.447710478973
1	499	322.093809629294	5.160769173477
1	507	332.952462746694	13.809881330679
1	515	341.975230319287	19.881420689993
1	521	343.377097201031	10.424634454337
1	527	352.852798247539	10.877567928252
1	533	356.933884672175	13.556787471144
1	539	367.19517793113	14.342379683591
1	543	368.414906384759	11.481021712584
1	549	374.759096475374	7.563918544244
1	555	375.119963947259	6.7050575625
1	561	381.99488743954	7.235790964166
1	569	392.272758745095	17.152794797836
1	575	395.000789813975	13.005902374435
1	579	399.400748773307	7.127990028212
1	587	402.410483931404	7.409694117429
1	591	403.732215784149	4.331467010842
1	599	408.290975737987	5.880491806583
1	605	409.253515741446	5.521299957297
1	609	410.11204120369	1.821065465703
1	615	410.903599861924	1.650084120478
1	623	412.484809318747	2.372768115057
1	629	422.255139095332	11.351539233408
1	633	422.544907770873	10.060098452126
1	639	428.599096957904	6.343957862572
1	643	430.55013505724	8.005227286367
1	647	430.604007743763	2.004910785859
1	655	431.931346683914	1.381211626674
1	665	437.811311684939	7.207303941176
1	669	438.091836820904	6.16049013699
1	677	446.030255876572	8.218944191633
1	681	449.85777334124	11.765936520336
1	689	452.316491881476	6.286236004904
1	695	456.730626688715	6.872853347475
1	701	460.482796343962	8.166304462486
1	705	461.128120313449	4.397493624734
1	711	463.575593597178	3.092797253216
1	719	465.802334519012	4.674214205563
1	725	469.876121181598	6.30052758442
1	729	470.063388232446	4.261053713434
1	735	471.171159797143	1.295038615545
1	743	478.663384598047	8.599996365601
1	749	481.28726576662	10.116105969477
1	755	485.378934489492	6.715549891445
1	759	488.050769062321	6.763503295701
1	763	491.480023628269	6.101089138777
1	771	493.651847084686	5.601078022365
1	779	497.106388850855	5.626365222586
1	785	512.318629635125	18.666782550439
1	791	518.319040670804	21.212651819949
1	797	527.499431817695	15.18080218257
1	803	538.131792821243	19.812752150439
1	807	539.524146026526	12.024714208831
1	811	540.083080963883	1.95128814264
1	819	541.131604623581	1.607458597055
1	827	544.066691688966	3.983610725083
1	831	545.31054007507	4.178935451489
1	839	552.376599577652	8.309907888686
1	845	554.586246476082	9.275706401012
1	851	558.089322975558	5.712723397906
1	857	560.424348805327	5.838102329245
1	863	565.559851943247	7.470528967689
1	869	567.198652871179	6.774304065852
1	875	570.876296808374	5.316444865127
1	881	576.839586289132	9.640933417953
1	885	576.944029440381	6.067732632007
1	893	585.489350948548	8.649764659416
1	899	585.946126571445	9.002097131064
1	903	587.265691057091	1.776340108543
1	911	593.32017114951	7.374044578065
1	917	606.364993530016	19.099302472925
1	923	617.488007218936	24.167836069426
1	929	623.731283316779	17.366289786763
1	935	636.336504031403	18.848496812467
1	939	637.787755000751	14.056471683972
1	945	643.734808470055	7.398304438652
1	951	648.871627117315	11.083872116564
1	957	651.998297045711	8.263488575656
1	961	653.028632582952	4.157005465637
1	969	658.684453152299	6.686156106588
1	975	660.607631446391	7.578998863439
1	983	669.626662731122	10.942209578823
1	989	674.644709630192	14.037078183801
1	995	681.404652137103	11.777989405981
1	999	685.291346471732	10.64663684154
1	1005	686.652576532254	5.247924395151
1	1011	689.451179976787	4.159833505055
1	1015	690.556135245287	3.903558713033
1	1019	692.521705546946	3.070525570159
1	1027	694.646126800943	4.089991555656
1	1031	694.74790813368	2.226202586734
1	1037	699.172164909985	4.526038109042
1	1045	706.892504834506	12.144596700826
1	1053	712.869560783758	13.697395873773
1	1061	716.339392017118	9.446887182612
1	1065	717.614433465964	4.744872682206
1	1069	718.087837144201	1.748445127083
1	1073	718.787384036436	1.172950570472
1	1081	721.117215905287	3.029378761086
1	1087	721.857590175281	3.070206138845
1	1097	734.091222009212	12.974006103925
1	1101	736.039565999764	14.181975824483
1	1109	737.590937492692	3.49971548348
1	1115	751.334425685793	15.294859686029
1	1121	752.864147636306	15.273210143614
1	1125	753.025064417409	1.690638731616
1	1131	755.746677330321	2.882529694015
1	1139	761.337591655722	8.312527238313
1	1145	766.481593077147	10.734915746826
1	1151	769.967933554255	8.630341898533
1	1157	777.685427030168	11.203833953021
1	1161	777.859051016956	7.891117462701
1	1169	782.393926770387	4.708499740219
1	1173	783.77331397354	5.914262956584
1	1181	799.543424943341	17.149498172954
1	1187	801.328793589243	17.555479615703
1	1193	804.498524005441	4.9550990621
1	1197	805.829046599348	4.500253010105
1	1201	806.462245435399	1.963721429958
1	1205	809.34874641025	3.519699810902
1	1209	811.976114627659	5.51386919226
1	1213	812.038480130151	2.689733719901
1	1217	813.095644819266	1.119530191607
1	1233	818.408717972564	6.370237842413
1	1241	823.146019609301	10.050374790035
1	1245	823.381823137048	4.973105164484
1	1249	825.935624389725	2.789604780424
1	1255	829.355097167837	5.973274030789
1	1261	830.679707480253	4.744083090528
1	1269	833.759117705468	4.404020537631
1	1277	841.362506503982	10.682799023729
1	1283	841.521135528295	7.762017822827
1	1289	848.202502803944	6.839996299962
1	1295	853.625043361503	12.103907833208
1	1301	856.685559814389	8.483057010445
1	1305	857.434635932155	3.809592570652
1	1313	862.424154992109	5.73859517772
1	1319	864.470046480532	7.035410548377
1	1325	867.228985256744	4.804830264635
1	1329	867.706919068396	3.236872587864
1	1333	868.737699890302	1.508714633558
1	1343	872.458280610482	4.751361542086
1	1349	877.210590304269	8.472890413967
1	1355	885.449300178939	12.991019568457
1	1359	885.552041250225	8.341450945956
1	1365	885.85747474762	0.408174568681
1	1369	886.700425650142	1.148384399917
1	1375	888.513596395346	2.656121647726
1	1383	891.484274879744	4.783849229602
1	1391	894.642359150301	6.128762754955
1	1395	895.75882450194	4.274549622196
1	1403	904.722197354179	10.079838203878
1	1409	914.042201678745	18.283377176805
1	1413	915.00500347995	10.282806125771
1	1421	928.926715037711	14.884513358966
1	1427	931.934592839222	16.929589359272
1	1433	937.007903481958	8.081188444247
1	1439	943.805694707453	11.871101868231
1	1445	951.424946716028	14.41704323407
1	1451	955.134832975823	11.32913826837
1	1455	957.107843533252	5.682896817224
1	1463	961.331168230365	6.196335254542
1	1469	968.206608318394	11.098764785142
1	1475	969.288855783166	7.957687552801
1	1479	969.533436481049	1.326828162655
1	1483	970.257409172386	0.96855338922
1	1491	974.901620348759	5.36818386771
1	1499	980.367954050146	10.11054487776
1	1503	983.012585745171	8.110965396412
1	1511	987.655482576117	7.287528525971
1	1517	992.097701546682	9.085115801511
1	1523	996.621311652373	8.965829076256
2	250	100.458975578682	25
2	254	101.385437053521	26
2	256	103.020730087251	25
2	260	106.366577035508	26
2	262	106.466797580551	27
2	264	106.776899601795	26
2	268	108.005791377653	25
2	272	108.97285529778	26
2	274	109.749827631636	27
2	276	118.208718190148	26
2	280	125.020445055049	27
2	282	128.978320654818	26
2	286	129.557599472933	25
2	290	129.67370588255	26
2	292	131.112183798619	27
2	294	136.086599885824	26
2	298	146.035947620109	25
2	302	149.076805515285	24
2	306	150.028266398159	25
2	308	150.549231752286	24
2	312	150.843499002162	25
2	314	151.228105622861	26
2	316	153.016698432705	27
2	318	154.263049765116	26
2	322	155.852338642087	27
2	324	160.247792742479	26
2	328	162.113350069723	25
2	332	163.641814067678	26
2	334	164.142511235037	27
2	336	165.445062675829	26
2	340	165.653269186796	25
2	344	167.947901370848	24
2	348	168.772370554914	25
2	350	169.312718182471	26
2	352	170.769343341957	27
2	354	173.929931394685	26
2	358	173.931378170689	25
2	362	174.623702878243	26
2	364	176.259742523771	27
2	366	180.884084525526	26
2	370	181.550372349885	27
2	372	187.561220305596	26
2	376	192.326288336943	27
2	378	196.669831840387	26
2	382	197.698709196681	27
2	384	199.580029460106	26
2	388	202.781046148432	27
2	390	205.944847274332	26
2	394	207.013230142799	27
2	396	208.008018084432	26
2	400	208.476149828595	27
2	402	218.086221668227	26
2	406	219.638547417662	27
2	408	222.862790879824	26
2	412	223.078805020851	25
2	416	223.915558855702	26
2	418	223.977153997897	27
2	420	236.026541630114	26
2	424	238.687495130832	27
2	426	241.491532543319	26
2	430	242.336009336013	27
2	432	243.762685210557	26
2	436	247.894934213563	27
2	438	263.537260841312	26
2	442	267.007340211571	25
2	446	267.357729490246	26
2	448	270.572237671231	27
2	450	276.290738789828	26
2	454	276.615976902587	27
2	456	286.929085686395	26
2	460	288.404674796394	25
2	464	290.504221349501	26
2	466	294.035543121806	25
2	470	295.557201515036	26
2	472	300.93352300057	27
2	474	305.237735310746	26
2	478	305.808743254676	25
2	482	305.901845251314	26
2	484	308.516270567232	27
2	486	315.694870937042	26
2	490	316.933040455817	25
2	494	319.142581416015	24
2	498	319.215977838761	25
2	500	322.093809629294	24
2	504	324.063117701032	25
2	506	325.787320066141	26
2	508	332.952462746694	25
2	512	333.985951062793	26
2	514	336.865169531894	27
2	516	341.975230319287	26
2	520	342.172754239376	27
2	522	343.377097201031	26
2	526	345.906388092222	27
2	528	352.852798247539	26
2	532	352.868086994191	27
2	534	356.933884672175	26
2	538	359.768554023518	27
2	540	367.19517793113	26
2	544	368.414906384759	25
2	548	373.320031298618	26
2	550	374.759096475374	25
2	554	374.867112482563	26
2	556	375.119963947259	25
2	560	379.159613966916	26
2	562	381.99488743954	25
2	566	382.607532521534	26
2	568	384.01734651883	27
2	570	392.272758745095	26
2	574	393.983839847059	27
2	576	395.000789813975	26
2	580	399.400748773307	25
2	584	400.284048337791	26
2	586	401.512816580678	27
2	588	402.410483931404	26
2	592	403.732215784149	25
2	596	404.167738678159	26
2	598	406.610883021533	27
2	600	408.290975737987	26
2	604	408.618253202065	27
2	606	409.253515741446	26
2	610	410.11204120369	25
2	614	410.249244591853	26
2	616	410.903599861924	25
2	620	411.274194553868	26
2	622	412.023875197097	27
2	624	412.484809318747	26
2	628	416.668269062944	27
2	630	422.255139095332	26
2	634	422.544907770873	25
2	638	426.026195546675	26
2	640	428.599096957904	25
2	644	430.55013505724	24
2	648	430.604007743763	23
2	652	431.063876565733	24
2	654	431.277223184306	25
2	656	431.931346683914	24
2	660	433.099440236601	25
2	662	434.342002227182	26
2	664	437.664732895133	27
2	666	437.811311684939	26
2	670	438.091836820904	25
2	674	443.40232646767	26
2	676	445.763861682106	27
2	678	446.030255876572	26
2	682	449.85777334124	25
2	686	451.327851797136	26
2	688	451.361379571075	27
2	690	452.316491881476	26
2	694	455.051805753433	27
2	696	456.730626688715	26
2	700	458.431217584689	27
2	702	460.482796343962	26
2	706	461.128120313449	25
2	710	463.117059712744	26
2	712	463.575593597178	25
2	716	463.987386975147	26
2	718	464.036749741519	27
2	720	465.802334519012	26
2	724	468.903931986099	27
2	726	469.876121181598	26
2	730	470.063388232446	25
2	734	470.563252264009	26
2	736	471.171159797143	25
2	740	471.506024035451	26
2	742	474.162359065108	27
2	744	478.663384598047	26
2	748	478.685393602647	27
2	750	481.28726576662	26
2	754	482.508866081788	27
2	756	485.378934489492	26
2	760	488.050769062321	25
2	764	491.480023628269	24
2	768	491.672460302033	25
2	770	493.081720634856	26
2	772	493.651847084686	25
2	776	494.037912502822	26
2	778	495.825066932325	27
2	780	497.106388850855	26
2	784	497.293175521083	27
2	786	512.318629635125	26
2	790	516.204829594045	27
2	792	518.319040670804	26
2	796	525.394951348527	27
2	798	527.499431817695	26
2	802	527.547898987291	27
2	804	538.131792821243	26
2	808	539.524146026526	25
2	812	540.083080963883	24
2	816	540.764018695482	25
2	818	541.119851691882	26
2	820	541.131604623581	25
2	824	543.35104843299	26
2	826	543.43667542941	27
2	828	544.066691688966	26
2	832	545.31054007507	25
2	836	548.031990318752	26
2	838	549.126489138647	27
2	840	552.376599577652	26
2	844	553.803724824899	27
2	846	554.586246476082	26
2	850	554.82843817641	27
2	852	558.089322975558	26
2	856	560.091212625464	27
2	858	560.424348805327	26
2	862	562.318777855441	27
2	864	565.559851943247	26
2	868	566.160824988327	27
2	870	567.198652871179	26
2	874	567.416803474898	27
2	876	570.876296808374	26
2	880	573.006572202364	27
2	882	576.839586289132	26
2	886	576.944029440381	25
2	890	577.668325601497	26
2	892	578.049321811313	27
2	894	585.489350948548	26
2	898	585.787674815818	27
2	900	585.946126571445	26
2	904	587.265691057091	25
2	908	588.581729103321	26
2	910	591.405317133748	27
2	912	593.32017114951	26
2	916	598.579837424708	27
2	918	606.364993530016	26
2	922	606.443909226292	27
2	924	617.488007218936	26
2	928	617.494733481965	27
2	930	623.731283316779	26
2	934	631.47888487124	27
2	936	636.336504031403	26
2	940	637.787755000751	25
2	944	639.698463515961	26
2	946	643.734808470055	25
2	950	645.69373356439	26
2	952	648.871627117315	25
2	956	649.391608501072	26
2	958	651.998297045711	25
2	962	653.028632582952	24
2	966	653.573450656973	25
2	968	653.573467413464	26
2	970	658.684453152299	25
2	974	660.067158142919	26
2	976	660.607631446391	25
2	980	661.125702880341	26
2	982	668.787495447017	27
2	984	669.626662731122	26
2	988	669.882163851895	27
2	990	674.644709630192	26
2	994	676.459910384525	27
2	996	681.404652137103	26
2	1000	685.291346471732	25
2	1004	686.445710340905	26
2	1006	686.652576532254	25
2	1010	687.953479300907	26
2	1012	689.451179976787	25
2	1016	690.556135245287	24
2	1020	692.521705546946	23
2	1024	692.552821880748	24
2	1026	693.684396617993	25
2	1028	694.646126800943	24
2	1032	694.74790813368	23
2	1036	696.5154812188	24
2	1038	699.172164909985	23
2	1042	700.939678527281	24
2	1044	705.531060223908	25
2	1046	706.892504834506	24
2	1050	707.029837888341	25
2	1052	707.276458616778	26
2	1054	712.869560783758	25
2	1058	714.647084228273	26
2	1060	714.727161706411	27
2	1062	716.339392017118	26
2	1066	717.614433465964	25
2	1070	718.087837144201	24
2	1074	718.787384036436	23
2	1078	720.054823912343	24
2	1080	720.565504158446	25
2	1082	721.117215905287	24
2	1086	721.419737829782	25
2	1088	721.857590175281	24
2	1092	722.145306917704	25
2	1094	724.371088780343	26
2	1096	729.505355391626	27
2	1098	734.091222009212	26
2	1102	736.039565999764	25
2	1106	736.752742817447	26
2	1108	736.764048822903	27
2	1110	737.590937492692	26
2	1114	742.346280469986	27
2	1116	751.334425685793	26
2	1120	752.628186991957	27
2	1122	752.864147636306	26
2	1126	753.025064417409	25
2	1130	754.958243792847	26
2	1132	755.746677330321	25
2	1136	756.311554990028	26
2	1138	756.672584707253	27
2	1140	761.337591655722	26
2	1144	764.094420191268	27
2	1146	766.481593077147	26
2	1150	767.004776836481	27
2	1152	769.967933554255	26
2	1156	775.224022609315	27
2	1158	777.685427030168	26
2	1162	777.859051016956	25
2	1166	778.898981030015	26
2	1168	780.232635787995	27
2	1170	782.393926770387	26
2	1174	783.77331397354	25
2	1178	787.722363596859	26
2	1180	794.201115257731	27
2	1182	799.543424943341	26
2	1186	800.733840472303	27
2	1188	801.328793589243	26
2	1192	801.606369373186	27
2	1194	804.498524005441	26
2	1198	805.829046599348	25
2	1202	806.462245435399	24
2	1206	809.34874641025	23
2	1210	811.976114627659	22
2	1214	812.038480130151	21
2	1218	813.095644819266	20
2	1222	813.9352943265	21
2	1224	814.005020179969	22
2	1226	814.017949328537	23
2	1228	814.428959302146	24
2	1230	815.049835933357	25
2	1232	815.551454979194	26
2	1234	818.408717972564	25
2	1238	818.74789554753	26
2	1240	819.442546400144	27
2	1242	823.146019609301	26
2	1246	823.381823137048	25
2	1250	825.935624389725	24
2	1254	826.246506261116	25
2	1256	829.355097167837	24
2	1260	830.01612497037	25
2	1262	830.679707480253	24
2	1266	831.993989351965	25
2	1268	832.893683153836	26
2	1270	833.759117705468	25
2	1274	834.330650805569	26
2	1276	840.437795298411	27
2	1278	841.362506503982	26
2	1282	841.504309857247	27
2	1284	841.521135528295	26
2	1288	842.708228100077	27
2	1290	848.202502803944	26
2	1294	849.521714970616	27
2	1296	853.625043361503	26
2	1300	855.583289520843	27
2	1302	856.685559814389	26
2	1306	857.434635932155	25