version 3
run General-29-20221103-10:28:22-6760
attr configname General
attr datetime 20221103-10:28:22
attr datetimef 20221103-102822
attr experiment General
attr inifile block.ini
attr iterationvars "$0=3, $1=30"
attr iterationvarsd 3/30
attr iterationvarsf 3,30-
attr measurement "$0=3, $1=30"
attr network Block
attr processid 6760
attr repetition 4
attr replication #4
attr resultdir results
attr runnumber 29
attr seedset 29
config network Block
config repeat 5
config sim-time-limit 1000s
config warmup-period 100s
config **.alloca.resourceModuleName "\"risorse\""
config **.dealloca.resourceModuleName "\"risorse\""
config **.is.delay exponential(3s)
config **.servente.serviceTime exponential(3s)
config **.dealloca.resourceAmount 2
config **.alloca.resourceAmount 2
config **.risorse.amount 6
config **.sorgente.numJobs (30)
config **.result-recording-modes all

vector 0 Block.servente queueLength:vector ETV
attr interpolationmode sample-hold
attr recordingmode vector
attr title "queue length"
vector 1 Block.servente queueingTime:vector ETV
attr interpolationmode none
attr recordingmode vector
attr title "queueing time at dequeue"
attr unit s
vector 2 Block.alloca queueLength:vector ETV
attr interpolationmode sample-hold
attr recordingmode vector
attr title "queue length"
vector 3 Block.alloca queueingTime:vector ETV
attr interpolationmode none
attr recordingmode vector
attr title "queueing time at dequeue"
attr unit s
vector 4 Block.risorse amount:vector ETV
attr interpolationmode sample-hold
attr recordingmode vector
attr title "available resource"
vector 5 Block.is delayedJobs:vector ETV
attr interpolationmode sample-hold
attr recordingmode vector
attr title "number of delayed jobs"
0	287	105.368173364734	1
0	289	105.368173364734	2
0	293	107.808301995695	1
0	295	107.808301995695	2
0	299	115.965862767319	1
0	301	115.965862767319	2
0	303	119.306229762193	1
0	305	119.306229762193	2
0	307	119.61697076711	1
0	309	119.61697076711	2
0	311	119.831708836438	1
0	313	119.831708836438	2
0	323	130.951396982358	1
0	325	130.951396982358	2
0	327	133.339543646039	1
0	329	133.339543646039	2
0	333	133.471421611018	1
0	335	133.471421611018	2
0	339	135.473875891822	1
0	341	135.473875891822	2
0	347	143.612469320336	1
0	349	143.612469320336	2
0	353	148.54511136884	1
0	355	148.54511136884	2
0	357	153.261559055485	1
0	359	153.261559055485	2
0	363	154.328992216212	1
0	365	154.328992216212	2
0	371	158.348682178185	1
0	373	158.348682178185	2
0	377	163.443860448854	1
0	379	163.443860448854	2
0	381	163.593659146961	1
0	383	163.593659146961	2
0	385	165.293276912884	1
0	387	165.293276912884	2
0	395	172.752612531029	1
0	397	172.752612531029	2
0	399	178.570226703872	1
0	401	178.570226703872	2
0	405	182.168869415031	1
0	407	182.168869415031	2
0	413	184.900192789747	1
0	415	184.900192789747	2
0	417	185.952012154274	1
0	419	185.952012154274	2
0	425	188.437602444243	1
0	427	188.437602444243	2
0	431	190.037467460737	1
0	433	190.037467460737	2
0	435	190.163696433795	1
0	437	190.163696433795	2
0	439	192.74480626033	1
0	441	192.74480626033	2
0	449	196.496854841897	1
0	451	196.496854841897	2
0	455	199.85845023027	1
0	457	199.85845023027	2
0	461	201.671401885639	1
0	463	201.671401885639	2
0	467	203.021013009794	1
0	469	203.021013009794	2
0	473	212.831638658546	1
0	475	212.831638658546	2
0	479	228.132420012041	1
0	481	228.132420012041	2
0	485	231.469233994937	1
0	487	231.469233994937	2
0	491	239.024164307292	1
0	493	239.024164307292	2
0	495	243.821431965677	1
0	497	243.821431965677	2
0	503	253.60370140764	1
0	505	253.60370140764	2
0	507	255.045852920332	1
0	509	255.045852920332	2
0	511	255.381415030578	1
0	513	255.381415030578	2
0	515	255.388915549004	1
0	517	255.388915549004	2
0	521	257.084967055361	1
0	523	257.084967055361	2
0	529	258.970548160471	1
0	531	258.970548160471	2
0	537	261.949124042814	1
0	539	261.949124042814	2
0	541	262.599186245502	1
0	543	262.599186245502	2
0	545	265.368791756984	1
0	547	265.368791756984	2
0	553	267.631494151211	1
0	555	267.631494151211	2
0	557	267.690232542635	1
0	559	267.690232542635	2
0	565	268.369107727701	1
0	567	268.369107727701	2
0	573	270.631468188729	1
0	575	270.631468188729	2
0	581	285.576186713272	1
0	583	285.576186713272	2
0	587	288.29048803381	1
0	589	288.29048803381	2
0	593	293.825461270774	1
0	595	293.825461270774	2
0	597	295.704847503235	1
0	599	295.704847503235	2
0	601	296.28126412233	1
0	603	296.28126412233	2
0	607	298.280358115746	1
0	609	298.280358115746	2
0	611	298.558485504119	1
0	613	298.558485504119	2
0	621	307.918923090299	1
0	623	307.918923090299	2
0	625	309.508135224183	1
0	627	309.508135224183	2
0	631	311.151562157181	1
0	633	311.151562157181	2
0	635	311.16567303721	1
0	637	311.16567303721	2
0	639	312.047328734689	1
0	641	312.047328734689	2
0	649	315.600328612012	1
0	651	315.600328612012	2
0	653	315.880849321362	1
0	655	315.880849321362	2
0	663	318.907080924582	1
0	665	318.907080924582	2
0	671	320.888982063998	1
0	673	320.888982063998	2
0	675	321.176142855007	1
0	677	321.176142855007	2
0	681	323.616155301512	1
0	683	323.616155301512	2
0	689	330.239253729269	1
0	691	330.239253729269	2
0	693	332.236906822105	1
0	695	332.236906822105	2
0	697	333.676289208444	1
0	699	333.676289208444	2
0	701	333.862910360603	1
0	703	333.862910360603	2
0	713	343.015352952626	1
0	715	343.015352952626	2
0	717	344.935009271318	1
0	719	344.935009271318	2
0	723	346.803645755936	1
0	725	346.803645755936	2
0	729	348.22986912947	1
0	731	348.22986912947	2
0	733	348.714363212218	1
0	735	348.714363212218	2
0	743	352.499333003365	1
0	745	352.499333003365	2
0	749	356.800278235283	1
0	751	356.800278235283	2
0	755	360.20076355706	1
0	757	360.20076355706	2
0	761	370.503337459775	1
0	763	370.503337459775	2
0	767	377.636925774976	1
0	769	377.636925774976	2
0	773	381.260034551544	1
0	775	381.260034551544	2
0	779	388.151645828315	1
0	781	388.151645828315	2
0	785	392.386176835541	1
0	787	392.386176835541	2
0	791	398.96316906512	1
0	793	398.96316906512	2
0	795	399.362048474065	1
0	797	399.362048474065	2
0	801	403.190809928589	1
0	803	403.190809928589	2
0	809	407.577260082664	1
0	811	407.577260082664	2
0	815	409.140218482621	1
0	817	409.140218482621	2
0	819	409.94079980276	1
0	821	409.94079980276	2
0	823	410.32119968415	1
0	825	410.32119968415	2
0	831	413.315620007556	1
0	833	413.315620007556	2
0	839	417.707358519268	1
0	841	417.707358519268	2
0	845	427.953270846071	1
0	847	427.953270846071	2
0	851	431.061402383601	1
0	853	431.061402383601	2
0	857	432.580312678112	1
0	859	432.580312678112	2
0	863	436.216821501964	1
0	865	436.216821501964	2
0	869	439.024083221252	1
0	871	439.024083221252	2
0	873	441.042954919559	1
0	875	441.042954919559	2
0	879	443.784435374131	1
0	881	443.784435374131	2
0	885	444.686009563555	1
0	887	444.686009563555	2
0	893	451.389659489471	1
0	895	451.389659489471	2
0	897	452.92534816861	1
0	899	452.92534816861	2
0	903	456.311098469927	1
0	905	456.311098469927	2
0	911	462.222775500484	1
0	913	462.222775500484	2
0	915	465.012403133017	1
0	917	465.012403133017	2
0	919	466.160924318301	1
0	921	466.160924318301	2
0	929	476.642584556284	1
0	931	476.642584556284	2
0	935	482.982074962675	1
0	937	482.982074962675	2
0	941	493.167681982698	1
0	943	493.167681982698	2
0	947	495.844798246384	1
0	949	495.844798246384	2
0	951	499.53862347958	1
0	953	499.53862347958	2
0	957	500.885410008512	1
0	959	500.885410008512	2
0	963	508.107717671594	1
0	965	508.107717671594	2
0	971	512.8132313491	1
0	973	512.8132313491	2
0	975	513.452404922111	1
0	977	513.452404922111	2
0	981	515.898568664647	1
0	983	515.898568664647	2
0	987	518.877671489812	1
0	989	518.877671489812	2
0	993	520.232388007152	1
0	995	520.232388007152	2
0	1001	521.536826563635	1
0	1003	521.536826563635	2
0	1007	523.854730370563	1
0	1009	523.854730370563	2
0	1013	529.138359547557	1
0	1015	529.138359547557	2
0	1019	532.345542756656	1
0	1021	532.345542756656	2
0	1023	534.234432713202	1
0	1025	534.234432713202	2
0	1031	550.011854575634	1
0	1033	550.011854575634	2
0	1035	550.465744398909	1
0	1037	550.465744398909	2
0	1043	557.212225729941	1
0	1045	557.212225729941	2
0	1049	557.508734982952	1
0	1051	557.508734982952	2
0	1055	563.022437046373	1
0	1057	563.022437046373	2
0	1061	564.532124917168	1
0	1063	564.532124917168	2
0	1065	569.34913468279	1
0	1067	569.34913468279	2
0	1071	571.539358246526	1
0	1073	571.539358246526	2
0	1075	575.256358442888	1
0	1077	575.256358442888	2
0	1085	581.784025872023	1
0	1087	581.784025872023	2
0	1089	584.768471374136	1
0	1091	584.768471374136	2
0	1097	589.627491907621	1
0	1099	589.627491907621	2
0	1103	595.217486503061	1
0	1105	595.217486503061	2
0	1107	597.101182328176	1
0	1109	597.101182328176	2
0	1113	597.678266744492	1
0	1115	597.678266744492	2
0	1117	598.040101345732	1
0	1119	598.040101345732	2
0	1121	599.550751295849	1
0	1123	599.550751295849	2
0	1131	604.416044041192	1
0	1133	604.416044041192	2
0	1137	606.440490876903	1
0	1139	606.440490876903	2
0	1145	613.168624693784	1
0	1147	613.168624693784	2
0	1151	616.913608549417	1
0	1153	616.913608549417	2
0	1155	624.361432486152	1
0	1157	624.361432486152	2
0	1163	630.681388227471	1
0	1165	630.681388227471	2
0	1169	634.248695170292	1
0	1171	634.248695170292	2
0	1175	634.824581103606	1
0	1177	634.824581103606	2
0	1179	634.856678619	1
0	1181	634.856678619	2
0	1183	634.960329885269	1
0	1185	634.960329885269	2
0	1193	643.954064455788	1
0	1195	643.954064455788	2
0	1197	644.084771835887	1
0	1199	644.084771835887	2
0	1201	644.225466944517	1
0	1203	644.225466944517	2
0	1209	651.886298240645	1
0	1211	651.886298240645	2
0	1217	661.67474702075	1
0	1219	661.67474702075	2
0	1221	662.402681191329	1
0	1223	662.402681191329	2
0	1229	665.648671583841	1
0	1231	665.648671583841	2
0	1233	667.465141632384	1
0	1235	667.465141632384	2
0	1239	673.76703193877	1
0	1241	673.76703193877	2
0	1247	680.689501314657	1
0	1249	680.689501314657	2
0	1253	684.448649839356	1
0	1255	684.448649839356	2
0	1257	684.557502928708	1
0	1259	684.557502928708	2
0	1261	685.588270978662	1
0	1263	685.588270978662	2
0	1271	690.785535620658	1
0	1273	690.785535620658	2
0	1277	693.830157989336	1
0	1279	693.830157989336	2
0	1283	699.795726390964	1
0	1285	699.795726390964	2
0	1287	700.379631885944	1
0	1289	700.379631885944	2
0	1295	703.627061458695	1
0	1297	703.627061458695	2
0	1299	703.643330891684	1
0	1301	703.643330891684	2
0	1303	703.72987380363	1
0	1305	703.72987380363	2
0	1307	704.709167557904	1
0	1309	704.709167557904	2
0	1317	711.444066404512	1
0	1319	711.444066404512	2
0	1323	713.022749908666	1
0	1325	713.022749908666	2
0	1327	713.396249053453	1
0	1329	713.396249053453	2
0	1333	714.098475351613	1
0	1335	714.098475351613	2
0	1337	715.289719476516	1
0	1339	715.289719476516	2
0	1347	716.015950006901	1
0	1349	716.015950006901	2
0	1351	716.297955549319	1
0	1353	716.297955549319	2
0	1361	723.627763398352	1
0	1363	723.627763398352	2
0	1365	723.733302731272	1
0	1367	723.733302731272	2
0	1371	724.296083234246	1
0	1373	724.296083234246	2
0	1375	725.289210248198	1
0	1377	725.289210248198	2
0	1381	725.528982363904	1
0	1383	725.528982363904	2
0	1389	727.584508613249	1
0	1391	727.584508613249	2
0	1397	728.576834035406	1
0	1399	728.576834035406	2
0	1401	728.764461054357	1
0	1403	728.764461054357	2
0	1405	729.47220537854	1
0	1407	729.47220537854	2
0	1415	735.898773974341	1
0	1417	735.898773974341	2
0	1419	736.811787467304	1
0	1421	736.811787467304	2
0	1423	737.288184819572	1
0	1425	737.288184819572	2
0	1427	737.751883740784	1
0	1429	737.751883740784	2
0	1437	746.843245171283	1
0	1439	746.843245171283	2
0	1443	750.521013413797	1
0	1445	750.521013413797	2
0	1449	751.560110380955	1
0	1451	751.560110380955	2
0	1457	755.517864159988	1
0	1459	755.517864159988	2
0	1463	762.461065376584	1
0	1465	762.461065376584	2
0	1467	762.547368736655	1
0	1469	762.547368736655	2
0	1473	763.77070850977	1
0	1475	763.77070850977	2
0	1479	767.074617940162	1
0	1481	767.074617940162	2
0	1487	769.477434883211	1
0	1489	769.477434883211	2
0	1493	771.867416657308	1
0	1495	771.867416657308	2
0	1499	780.409637511399	1
0	1501	780.409637511399	2
0	1503	781.135914785297	1
0	1505	781.135914785297	2
0	1511	789.930490804782	1
0	1513	789.930490804782	2
0	1517	796.080395386611	1
0	1519	796.080395386611	2
0	1523	798.851030966303	1
0	1525	798.851030966303	2
0	1529	801.689427686784	1
0	1531	801.689427686784	2
0	1533	805.111523816674	1
0	1535	805.111523816674	2
0	1541	816.300725577706	1
0	1543	816.300725577706	2
0	1547	822.435478069599	1
0	1549	822.435478069599	2
0	1551	823.01255097237	1
0	1553	823.01255097237	2
0	1555	823.875644482658	1
0	1557	823.875644482658	2
0	1563	827.229198070844	1
0	1565	827.229198070844	2
0	1569	827.979573518475	1
0	1571	827.979573518475	2
0	1575	830.638480080085	1
0	1577	830.638480080085	2
0	1581	832.322273583091	1
0	1583	832.322273583091	2
0	1589	837.848039212818	1
0	1591	837.848039212818	2
0	1595	849.585680210011	1
0	1597	849.585680210011	2
0	1601	853.663489242459	1
0	1603	853.663489242459	2
0	1605	853.714127893142	1
0	1607	853.714127893142	2
0	1613	857.248122150334	1
0	1615	857.248122150334	2
0	1619	860.131777544562	1
0	1621	860.131777544562	2
0	1625	869.679262740936	1
0	1627	869.679262740936	2
0	1629	870.926623846615	1
0	1631	870.926623846615	2
0	1635	873.790961582142	1
0	1637	873.790961582142	2
0	1643	878.760951457908	1
0	1645	878.760951457908	2
0	1647	880.169615357735	1
0	1649	880.169615357735	2
0	1651	882.759696977632	1
0	1653	882.759696977632	2
0	1659	883.708702119492	1
0	1661	883.708702119492	2
0	1667	887.397076819815	1
0	1669	887.397076819815	2
0	1671	888.447074836631	1
0	1673	888.447074836631	2
0	1679	892.008754807488	1
0	1681	892.008754807488	2
0	1685	896.585764580837	1
0	1687	896.585764580837	2
0	1691	897.627875729733	1
0	1693	897.627875729733	2
0	1695	897.768958917884	1
0	1697	897.768958917884	2
0	1699	899.142561981473	1
0	1701	899.142561981473	2
0	1703	902.150403397638	1
0	1705	902.150403397638	2
0	1715	905.378284580221	1
0	1717	905.378284580221	2
0	1719	906.775358723882	1
0	1721	906.775358723882	2
0	1727	909.267381237696	1
0	1729	909.267381237696	2
0	1733	917.656388366732	1
0	1735	917.656388366732	2
0	1737	923.930710750006	1
0	1739	923.930710750006	2
0	1745	925.286798826062	1
0	1747	925.286798826062	2
0	1751	934.175590644964	1
0	1753	934.175590644964	2
0	1755	934.315192136342	1
0	1757	934.315192136342	2
0	1763	940.870064594473	1
0	1765	940.870064594473	2
0	1769	947.516757934022	1
0	1771	947.516757934022	2
0	1773	948.868413038062	1
0	1775	948.868413038062	2
0	1777	950.470302318986	1
0	1779	950.470302318986	2
0	1787	955.150917300141	1
0	1789	955.150917300141	2
0	1791	955.44694482648	1
0	1793	955.44694482648	2
0	1797	957.739221382496	1
0	1799	957.739221382496	2
0	1805	961.004713594137	1
0	1807	961.004713594137	2
0	1811	963.538390412014	1
0	1813	963.538390412014	2
0	1817	967.408520703669	1
0	1819	967.408520703669	2
0	1821	967.708855162955	1
0	1823	967.708855162955	2
0	1827	968.220219634305	1
0	1829	968.220219634305	2
0	1835	970.534303212881	1
0	1837	970.534303212881	2
0	1841	973.456625477898	1
0	1843	973.456625477898	2
0	1847	980.221145676872	1
0	1849	980.221145676872	2
0	1853	982.844866179644	1
0	1855	982.844866179644	2
0	1857	987.031775507322	1
0	1859	987.031775507322	2
0	1863	989.039537271342	1
0	1865	989.039537271342	2
0	1871	992.060598851165	1
0	1873	992.060598851165	2
0	1877	995.737991461525	1
0	1879	995.737991461525	2
1	287	105.368173364734	15.59946881392
1	293	107.808301995695	17.594542045843
1	299	115.965862767319	10.597689402585
1	303	119.306229762193	11.497927766498
1	307	119.61697076711	3.651107999791
1	311	119.831708836438	0.525479074245
1	323	130.951396982358	11.334426215248
1	327	133.339543646039	13.507834809601
1	333	133.471421611018	2.52002462866
1	339	135.473875891822	2.134332245783
1	347	143.612469320336	10.141047709318
1	353	148.54511136884	13.071235477018
1	357	153.261559055485	9.649089735149
1	363	154.328992216212	5.783880847372
1	371	158.348682178185	5.0871231227
1	377	163.443860448854	9.114868232642
1	381	163.593659146961	5.244976968776
1	385	165.293276912884	1.84941646403
1	395	172.752612531029	9.158953384068
1	399	178.570226703872	13.276949790988
1	405	182.168869415031	9.416256884002
1	413	184.900192789747	6.329966085875
1	417	185.952012154274	3.783142739243
1	425	188.437602444243	3.537409654496
1	431	190.037467460737	4.085455306463
1	435	190.163696433795	1.726093989552
1	439	192.74480626033	2.707338799593
1	449	196.496854841897	6.333158408102
1	455	199.85845023027	7.11364396994
1	461	201.671401885639	5.174547043742
1	467	203.021013009794	3.162562779524
1	473	212.831638658546	11.160236772907
1	479	228.132420012041	25.111407002247
1	485	231.469233994937	18.637595336391
1	491	239.024164307292	10.891744295251
1	495	243.821431965677	12.35219797074
1	503	253.60370140764	14.579537100348
1	507	255.045852920332	11.224420954655
1	511	255.381415030578	1.777713622938
1	515	255.388915549004	0.343062628672
1	521	257.084967055361	1.703552024783
1	529	258.970548160471	3.581632611467
1	537	261.949124042814	4.864156987453
1	541	262.599186245502	3.628638085031
1	545	265.368791756984	3.41966771417
1	553	267.631494151211	5.032307905709
1	557	267.690232542635	2.321440785651
1	565	268.369107727701	0.73761357649
1	573	270.631468188729	2.941235646094
1	581	285.576186713272	17.207078985571
1	587	288.29048803381	17.659019845081
1	593	293.825461270774	8.249274557502
1	597	295.704847503235	7.414359469425
1	601	296.28126412233	2.455802851556
1	607	298.280358115746	2.575510612511
1	611	298.558485504119	2.277221381789
1	621	307.918923090299	9.638564974553
1	625	309.508135224183	10.949649720064
1	631	311.151562157181	3.232639066882
1	635	311.16567303721	1.657537813027
1	639	312.047328734689	0.895766577508
1	649	315.600328612012	4.434655574802
1	653	315.880849321362	3.833520586673
1	663	318.907080924582	3.30675231257
1	671	320.888982063998	5.008132742636
1	675	321.176142855007	2.269061930425
1	681	323.616155301512	2.727173237514
1	689	330.239253729269	9.063110874262
1	693	332.236906822105	8.620751520593
1	697	333.676289208444	3.437035479175
1	701	333.862910360603	1.626003538498
1	713	343.015352952626	9.339063744182
1	717	344.935009271318	11.072098910715
1	723	346.803645755936	3.78829280331
1	729	348.22986912947	3.294859858152
1	733	348.714363212218	1.910717456282
1	743	352.499333003365	4.269463873895
1	749	356.800278235283	8.085915023065
1	755	360.20076355706	7.701430553695
1	761	370.503337459775	13.703059224492
1	767	377.636925774976	17.436162217916
1	773	381.260034551544	10.756697091769
1	779	388.151645828315	10.514720053339
1	785	392.386176835541	11.126142283997
1	791	398.96316906512	10.811523236805
1	795	399.362048474065	6.975871638524
1	801	403.190809928589	4.227640863469
1	809	407.577260082664	8.215211608599
1	815	409.140218482621	5.949408554032
1	819	409.94079980276	2.363539720096
1	823	410.32119968415	1.180981201529
1	831	413.315620007556	3.374820204796
1	839	417.707358519268	7.386158835118
1	845	427.953270846071	14.637650838515
1	851	431.061402383601	13.354043864333
1	857	432.580312678112	4.627041832041
1	863	436.216821501964	5.155419118363
1	869	439.024083221252	6.44377054314
1	873	441.042954919559	4.826133417595
1	879	443.784435374131	4.760352152879
1	885	444.686009563555	3.643054643996
1	893	451.389659489471	7.60522411534
1	897	452.92534816861	8.239338605055
1	903	456.311098469927	4.921438980456
1	911	462.222775500484	9.297427331874
1	915	465.012403133017	8.70130466309
1	919	466.160924318301	3.938148817817
1	929	476.642584556284	11.630181423267
1	935	482.982074962675	16.821150644374
1	941	493.167681982698	16.525097426414
1	947	495.844798246384	12.862723283709
1	951	499.53862347958	6.370941496882
1	957	500.885410008512	5.040611762128
1	963	508.107717671594	8.569094192014
1	971	512.8132313491	11.927821340588
1	975	513.452404922111	5.344687250517
1	981	515.898568664647	3.085337315547
1	987	518.877671489812	5.425266567701
1	993	520.232388007152	4.333819342505
1	1001	521.536826563635	2.659155073823
1	1007	523.854730370563	3.622342363411
1	1013	529.138359547557	7.601532983922
1	1019	532.345542756656	8.490812386093
1	1023	534.234432713202	5.096073165645
1	1031	550.011854575634	17.666311818978
1	1035	550.465744398909	16.231311685707
1	1043	557.212225729941	7.200371154307
1	1049	557.508734982952	7.042990584043
1	1055	563.022437046373	5.810211316432
1	1061	564.532124917168	7.023389934216
1	1065	569.34913468279	6.326697636417
1	1071	571.539358246526	7.007233329358
1	1075	575.256358442888	5.907223760098
1	1085	581.784025872023	10.244667625497
1	1089	584.768471374136	9.512112931248
1	1097	589.627491907621	7.843466035598
1	1103	595.217486503061	10.449015128925
1	1107	597.101182328176	7.473690420555
1	1113	597.678266744492	2.460780241431
1	1117	598.040101345732	0.938919017556
1	1121	599.550751295849	1.872484551357
1	1131	604.416044041192	6.37594269546
1	1137	606.440490876903	6.889739581054
1	1145	613.168624693784	8.752580652592
1	1151	616.913608549417	10.473117672514
1	1155	624.361432486152	11.192807792368
1	1163	630.681388227471	13.767779678054
1	1169	634.248695170292	9.88726268414
1	1175	634.824581103606	4.143192876135
1	1179	634.856678619	0.607983448708
1	1183	634.960329885269	0.135748781663
1	1193	643.954064455788	9.097385836788
1	1197	644.084771835887	9.124441950618
1	1201	644.225466944517	0.271402488729
1	1209	651.886298240645	7.801526404758
1	1217	661.67474702075	17.449280076233
1	1221	662.402681191329	10.516382950684
1	1229	665.648671583841	3.973924563091
1	1233	667.465141632384	5.062460441055
1	1239	673.76703193877	8.118360354929
1	1247	680.689501314657	13.224359682273
1	1253	684.448649839356	10.681617900586
1	1257	684.557502928708	3.868001614051
1	1261	685.588270978662	1.139621139306
1	1271	690.785535620658	6.22803269195
1	1277	693.830157989336	8.241887010674
1	1283	699.795726390964	9.010190770306
1	1287	700.379631885944	6.549473896608
1	1295	703.627061458695	3.831335067731
1	1299	703.643330891684	3.26369900574
1	1303	703.72987380363	0.102812344935
1	1307	704.709167557904	1.06583666622
1	1317	711.444066404512	7.714192600882
1	1323	713.022749908666	8.313582350762
1	1327	713.396249053453	1.952182648941
1	1333	714.098475351613	1.075725442947
1	1337	715.289719476516	1.893470423063
1	1347	716.015950006901	1.917474655288
1	1351	716.297955549319	1.008236072803
1	1361	723.627763398352	7.611813391451
1	1365	723.733302731272	7.435347181953
1	1371	724.296083234246	0.668319835894
1	1375	725.289210248198	1.555907516926
1	1381	725.528982363904	1.232899129658
1	1389	727.584508613249	2.295298365051
1	1397	728.576834035406	3.047851671502
1	1401	728.764461054357	1.179952441108
1	1405	729.47220537854	0.895371343134
1	1415	735.898773974341	7.134312919984
1	1419	736.811787467304	7.339582088764
1	1423	737.288184819572	1.389410845231
1	1427	737.751883740784	0.94009627348
1	1437	746.843245171283	9.555060351711
1	1443	750.521013413797	12.769129673013
1	1449	751.560110380955	4.716865209672
1	1457	755.517864159988	4.996850746191
1	1463	762.461065376584	10.900954995629
1	1467	762.547368736655	7.029504576667
1	1473	763.77070850977	1.309643133186
1	1479	767.074617940162	4.527249203507
1	1487	769.477434883211	5.706726373441
1	1493	771.867416657308	4.792798717146
1	1499	780.409637511399	10.932202628188
1	1503	781.135914785297	9.268498127989
1	1511	789.930490804782	9.520853293383
1	1517	796.080395386611	14.944480601314
1	1523	798.851030966303	8.920540161521
1	1529	801.689427686784	5.609032300173
1	1533	805.111523816674	6.260492850371
1	1541	816.300725577706	14.611297890922
1	1547	822.435478069599	17.323954252925
1	1551	823.01255097237	6.711825394664
1	1555	823.875644482658	1.440166413059
1	1563	827.229198070844	4.216647098474
1	1569	827.979573518475	4.103929035817
1	1575	830.638480080085	3.409282009241
1	1581	832.322273583091	4.342700064616
1	1589	837.848039212818	7.209559132733
1	1595	849.585680210011	17.26340662692
1	1601	853.663489242459	15.815450029641
1	1605	853.714127893142	4.128447683131
1	1613	857.248122150334	3.584632907875
1	1619	860.131777544562	6.41764965142
1	1625	869.679262740936	12.431140590602
1	1629	870.926623846615	10.794846302053
1	1635	873.790961582142	4.111698841206
1	1643	878.760951457908	7.834327611293
1	1647	880.169615357735	6.378653775593
1	1651	882.759696977632	3.998745519724
1	1659	883.708702119492	3.539086761757
1	1667	887.397076819815	4.637379842183
1	1671	888.447074836631	4.738372717139
1	1679	892.008754807488	4.611677987673
1	1685	896.585764580837	8.138689744206
1	1691	897.627875729733	5.619120922245
1	1695	897.768958917884	1.183194337047
1	1699	899.142561981473	1.51468625174
1	1703	902.150403397638	4.381444479754
1	1715	905.378284580221	6.235722598748
1	1719	906.775358723882	4.624955326244
1	1727	909.267381237696	3.889096657475
1	1733	917.656388366732	10.88102964285
1	1737	923.930710750006	14.66332951231
1	1745	925.286798826062	7.63041045933
1	1751	934.175590644964	10.244879894958
1	1755	934.315192136342	9.02839331028
1	1763	940.870064594473	6.694473949509
1	1769	947.516757934022	13.20156579768
1	1773	948.868413038062	7.998348443589
1	1777	950.470302318986	2.953544384964
1	1787	955.150917300141	6.282504262079
1	1791	955.44694482648	4.976642507494
1	1797	957.739221382496	2.588304082355
1	1805	961.004713594137	5.557768767657
1	1811	963.538390412014	5.799169029518
1	1817	967.408520703669	6.403807109532
1	1821	967.708855162955	4.170464750941
1	1827	968.220219634305	0.811698930636
1	1835	970.534303212881	2.825448049926
1	1841	973.456625477898	5.236405843593
1	1847	980.221145676872	9.686842463991
1	1853	982.844866179644	9.388240701746
1	1857	987.031775507322	6.81062983045
1	1863	989.039537271342	6.194671091698
1	1871	992.060598851165	5.028823343843
1	1877	995.737991461525	6.698454190183
2	288	105.368173364734	26
2	292	106.177973607404	27
2	294	107.808301995695	26
2	298	113.654300063547	27
2	300	115.965862767319	26
2	304	119.306229762193	25
2	308	119.61697076711	24
2	312	119.831708836438	23
2	316	119.840040562737	24
2	318	120.670012583353	25
2	320	120.847614426323	26
2	322	122.343407183449	27
2	324	130.951396982358	26
2	328	133.339543646039	25
2	332	133.455465554003	26
2	334	133.471421611018	25
2	338	134.808510688986	26
2	340	135.473875891822	25
2	344	137.271532691379	26
2	346	138.654350337174	27
2	348	143.612469320336	26
2	352	147.694217932687	27
2	354	148.54511136884	26
2	358	153.261559055485	25
2	362	153.65824545412	26
2	364	154.328992216212	25
2	368	155.861050040944	26
2	370	158.318790440153	27
2	372	158.348682178185	26
2	376	160.766740911401	27
2	378	163.443860448854	26
2	382	163.593659146961	25
2	386	165.293276912884	24
2	390	165.381899581871	25
2	392	165.692281995768	26
2	394	166.783832613513	27
2	396	172.752612531029	26
2	400	178.570226703872	25
2	404	178.683696654591	26
2	406	182.168869415031	25
2	410	182.743879102958	26
2	412	183.93690426202	27
2	414	184.900192789747	26
2	418	185.952012154274	25
2	422	186.354233297299	26
2	424	188.059789008287	27
2	426	188.437602444243	26
2	430	189.826766439733	27
2	432	190.037467460737	26
2	436	190.163696433795	25
2	440	192.74480626033	24
2	444	192.759360729417	25
2	446	194.226523256267	26
2	448	194.602790224095	27
2	450	196.496854841897	26
2	454	199.562191637785	27
2	456	199.85845023027	26
2	460	201.515928337549	27
2	462	201.671401885639	26
2	466	202.587694994925	27
2	468	203.021013009794	26
2	472	203.961939230535	27
2	474	212.831638658546	26
2	478	212.841255156908	27
2	480	228.132420012041	26
2	484	230.056271189927	27
2	486	231.469233994937	26
2	490	233.800610155912	27
2	492	239.024164307292	26
2	496	243.821431965677	25
2	500	243.991020095035	26
2	502	245.229771240174	27
2	504	253.60370140764	26
2	508	255.045852920332	25
2	512	255.381415030578	24
2	516	255.388915549004	23
2	520	256.754924947703	24
2	522	257.084967055361	23
2	526	257.108743865271	24
2	528	258.601361841759	25
2	530	258.970548160471	24
2	534	259.426809031152	25
2	536	260.274581994449	26
2	538	261.949124042814	25
2	542	262.599186245502	24
2	546	265.368791756984	23
2	550	265.861621578117	24
2	552	266.493369483771	25
2	554	267.631494151211	24
2	558	267.690232542635	23
2	562	267.733081892865	24
2	564	268.045829358328	25
2	566	268.369107727701	24
2	570	268.920228386386	25
2	572	269.099483274658	26
2	574	270.631468188729	25
2	578	270.953278571873	26
2	580	273.926225712877	27
2	582	285.576186713272	26
2	586	286.556351643487	27
2	588	288.29048803381	26
2	592	288.546527357798	27
2	594	293.825461270774	26
2	598	295.704847503235	25
2	602	296.28126412233	24
2	606	296.98208938108	25
2	608	298.280358115746	24
2	612	298.558485504119	23
2	616	300.248568725671	24
2	618	300.977926440598	25
2	620	302.500708396739	26
2	622	307.918923090299	25
2	626	309.508135224183	24
2	630	310.512707537884	25
2	632	311.151562157181	24
2	636	311.16567303721	23
2	640	312.047328734689	22
2	644	313.110466483855	23
2	646	313.238008454391	24
2	648	313.755041496977	25
2	650	315.600328612012	24
2	654	315.880849321362	23
2	658	316.576810570815	24
2	660	316.779048414949	25
2	662	317.567195074534	26
2	664	318.907080924582	25
2	668	319.628289829792	26
2	670	320.325700047312	27
2	672	320.888982063998	26
2	676	321.176142855007	25
2	680	321.342769816987	26
2	682	323.616155301512	25
2	686	323.70942481627	26
2	688	323.7620617088	27
2	690	330.239253729269	26
2	694	332.236906822105	25
2	698	333.676289208444	24
2	702	333.862910360603	23
2	706	336.413680784246	24
2	708	336.833082847472	25
2	710	337.063786666445	26
2	712	339.594058155086	27
2	714	343.015352952626	26
2	718	344.935009271318	25
2	722	346.669274619204	26
2	724	346.803645755936	25
2	728	346.822527135088	26
2	730	348.22986912947	25
2	734	348.714363212218	24
2	738	349.614536928235	25
2	740	350.382641340572	26
2	742	350.737077909212	27
2	744	352.499333003365	26
2	748	355.667319755018	27
2	750	356.800278235283	26
2	754	357.011953235551	27
2	756	360.20076355706	26
2	760	362.49614295813	27
2	762	370.503337459775	26
2	766	374.476319848888	27
2	768	377.636925774976	26
2	772	379.307126266251	27
2	774	381.260034551544	26
2	778	384.41812403851	27
2	780	388.151645828315	26
2	784	390.727810470791	27
2	786	392.386176835541	26
2	790	393.322878568564	27
2	792	398.96316906512	26
2	796	399.362048474065	25
2	800	399.895299341762	26
2	802	403.190809928589	25
2	806	404.641325407702	26