version 3
run General-10-20221103-10:28:21-6760
attr configname General
attr datetime 20221103-10:28:21
attr datetimef 20221103-102821
attr experiment General
attr inifile block.ini
attr iterationvars "$0=2, $1=30"
attr iterationvarsd 2/30
attr iterationvarsf 2,30-
attr measurement "$0=2, $1=30"
attr network Block
attr processid 6760
attr repetition 0
attr replication #0
attr resultdir results
attr runnumber 10
attr seedset 10
config network Block
config repeat 5
config sim-time-limit 1000s
config warmup-period 100s
config **.alloca.resourceModuleName "\"risorse\""
config **.dealloca.resourceModuleName "\"risorse\""
config **.is.delay exponential(3s)
config **.servente.serviceTime exponential(2s)
config **.dealloca.resourceAmount 2
config **.alloca.resourceAmount 2
config **.risorse.amount 6
config **.sorgente.numJobs (30)
config **.result-recording-modes all

vector 0 Block.is delayedJobs:vector ETV
attr interpolationmode sample-hold
attr recordingmode vector
attr title "number of delayed jobs"
vector 1 Block.alloca queueLength:vector ETV
attr interpolationmode sample-hold
attr recordingmode vector
attr title "queue length"
vector 2 Block.servente queueLength:vector ETV
attr interpolationmode sample-hold
attr recordingmode vector
attr title "queue length"
vector 3 Block.servente queueingTime:vector ETV
attr interpolationmode none
attr recordingmode vector
attr title "queueing time at dequeue"
attr unit s
vector 4 Block.alloca queueingTime:vector ETV
attr interpolationmode none
attr recordingmode vector
attr title "queueing time at dequeue"
attr unit s
vector 5 Block.risorse amount:vector ETV
attr interpolationmode sample-hold
attr recordingmode vector
attr title "available resource"
0	487	100.440737215063	1
0	489	101.080712596514	0
0	494	102.35679479164	1
0	498	102.645836183972	2
0	499	103.558147346445	1
0	504	104.502189157072	2
0	505	105.08948558552	1
0	510	105.167961671659	2
0	511	105.245145449905	1
0	513	105.575950499803	0
0	518	106.58005299542	1
0	522	106.658492122404	2
0	526	107.466756398584	3
0	530	107.46730152894	4
0	531	107.49000811772	3
0	533	107.663231894652	2
0	538	109.652495179494	3
0	539	109.913230995438	2
0	541	109.968027986301	1
0	546	110.600327863289	2
0	547	111.586322015495	1
0	549	111.639644598819	0
0	554	113.353665321963	1
0	555	113.552889529268	0
0	560	113.656650583586	1
0	564	114.638858179811	2
0	565	115.884076820355	1
0	570	118.666040587713	2
0	571	120.715920040755	1
0	576	124.952340463097	2
0	577	125.2206230182	1
0	582	126.285559991683	2
0	586	126.509509251895	3
0	590	127.340653139504	4
0	591	127.658886373606	3
0	593	128.029163827459	2
0	595	129.541292118142	1
0	600	130.951203412286	2
0	604	132.203832090569	3
0	608	132.398740467389	4
0	609	132.610320986773	3
0	611	133.540423379435	2
0	616	136.256569294402	3
0	617	136.279672117804	2
0	622	137.07930885816	3
0	623	137.974916973184	2
0	625	138.130405048298	1
0	630	138.942862649713	2
0	634	139.181927121916	3
0	638	140.752103176158	4
0	639	140.865502916744	3
0	641	141.64838945769	2
0	643	141.827754291943	1
0	645	142.746826990853	0
0	650	143.303746880322	1
0	651	144.599126684724	0
0	656	147.320824016499	1
0	660	147.638114842842	2
0	664	147.856363519061	3
0	665	148.706982206672	2
0	670	149.205229022739	3
0	674	149.264456519087	4
0	675	149.784638533289	3
0	677	149.80559963539	2
0	679	150.010738091758	1
0	684	151.071506397565	2
0	685	151.226895104293	1
0	690	151.532460842009	2
0	694	151.985767694435	3
0	695	152.328849643352	2
0	697	152.562901113579	1
0	699	152.769095779538	0
0	704	155.703180683825	1
0	708	155.83026698775	2
0	709	156.294522062206	1
0	714	157.213486451749	2
0	718	157.784766705	3
0	719	158.525421258363	2
0	724	158.577214669844	3
0	725	158.57760205296	2
0	730	158.583055361034	3
0	731	158.922156930904	2
0	736	159.283425007925	3
0	737	162.340390911698	2
0	739	162.766202324138	1
0	741	163.378236126156	0
0	746	167.952050684331	1
0	750	168.496541591488	2
0	751	169.855470409848	1
0	756	171.140526909019	2
0	757	171.23235972631	1
0	759	171.619696091801	0
0	764	177.69125455979	1
0	765	178.301405352513	0
0	770	181.070987038844	1
0	774	183.440811434576	2
0	775	183.590361828896	1
0	780	183.914019146995	2
0	781	184.178509112864	1
0	783	184.771520513273	0
0	788	185.372994563174	1
0	789	187.718329922629	0
0	794	191.351302007773	1
0	795	192.122851168855	0
0	800	193.732585257025	1
0	801	195.173530464576	0
0	806	198.433296272657	1
0	810	200.520933352931	2
0	814	201.368096229777	3
0	818	201.503578938689	4
0	822	202.002112218973	5
0	823	202.047026828436	4
0	828	202.297658593024	5
0	829	203.790883512175	4
0	831	203.877416784361	3
0	836	205.025127498023	4
0	840	205.876536575975	5
0	841	206.095402277728	4
0	843	207.578244374196	3
0	848	207.600445917535	4
0	852	207.969140168011	5
0	856	208.046562990392	6
0	857	208.306043945694	5
0	859	210.07402482279	4
0	861	210.583685380352	3
0	863	210.679185605718	2
0	868	211.445033365039	3
0	869	213.734091675623	2
0	871	214.264040650647	1
0	876	214.792611361551	2
0	877	215.146781615577	1
0	882	215.210194582434	2
0	883	215.27499656603	1
0	888	216.144011099943	2
0	889	216.888408381953	1
0	894	218.870668396738	2
0	895	219.202188746877	1
0	900	219.282867102257	2
0	901	219.695444043723	1
0	906	220.351048123006	2
0	910	220.876390581426	3
0	911	220.89634097686	2
0	913	221.020208526211	1
0	918	222.996845172272	2
0	919	222.99799883778	1
0	924	225.8878705785	2
0	925	226.171154512733	1
0	927	228.125214319837	0
0	932	229.49002565255	1
0	936	229.96708032656	2
0	937	232.465179633374	1
0	939	234.319370761934	0
0	944	236.50566145658	1
0	948	237.110956019292	2
0	949	237.773272593407	1
0	951	239.175686762926	0
0	956	241.097780183499	1
0	960	241.369131950961	2
0	964	242.296069095046	3
0	965	242.410912505244	2
0	967	242.421652632871	1
0	969	242.816512344872	0
0	974	244.525144149883	1
0	975	244.618640575553	0
0	980	249.956872785816	1
0	984	251.593838013198	2
0	985	251.767368152361	1
0	990	253.826061674294	2
0	994	253.986433515047	3
0	998	254.561494304629	4
0	999	255.113525334503	3
0	1004	255.440307798691	4
0	1005	255.445386754911	3
0	1010	255.487729772168	4
0	1011	255.691714569361	3
0	1013	256.270619365259	2
0	1015	258.229498866658	1
0	1017	260.905627792579	0
0	1022	260.958439571295	1
0	1026	261.428866035523	2
0	1030	263.148559122561	3
0	1034	264.888553773654	4
0	1038	265.421494145022	5
0	1039	265.538073371455	4
0	1041	265.921247963805	3
0	1046	266.74083845386	4
0	1047	266.805015606228	3
0	1049	267.090556843146	2
0	1051	268.290777376717	1
0	1056	268.324756048951	2
0	1057	269.44543491805	1
0	1062	272.433275557403	2
0	1063	272.489219575741	1
0	1065	273.014183208818	0
0	1070	279.083751010839	1
0	1074	279.436296173831	2
0	1078	279.470365137181	3
0	1082	279.504718444604	4
0	1086	279.948095253431	5
0	1087	280.52453426062	4
0	1089	280.924066392412	3
0	1091	281.455432152405	2
0	1093	281.595525641521	1
0	1098	284.524395774153	2
0	1099	284.568624833903	1
0	1101	285.08584448595	0
0	1106	287.606607446006	1
0	1110	289.922835084922	2
0	1114	290.713465974423	3
0	1118	291.763620786477	4
0	1119	292.543733229193	3
0	1121	293.273350108817	2
0	1123	293.381802367856	1
0	1128	293.469657766373	2
0	1132	293.471632076158	3
0	1133	293.842029137568	2
0	1135	293.995076374996	1
0	1137	294.712180470106	0
0	1142	296.243041451052	1
0	1143	296.541372431761	0
0	1148	299.022353716282	1
0	1152	299.989009884955	2
0	1153	300.229665604367	1
0	1158	300.922431226561	2
0	1159	301.614258748238	1
0	1161	302.796910785719	0
0	1166	304.621401711337	1
0	1167	307.179774084578	0
0	1172	307.469780330812	1
0	1176	307.832302590677	2
0	1177	308.513484773389	1
0	1182	310.638421444239	2
0	1183	311.03126130508	1
0	1188	312.451072190127	2
0	1189	313.749026957958	1
0	1191	315.520743561644	0
0	1196	317.680434338691	1
0	1197	317.974729776104	0
0	1202	318.753060333579	1
0	1206	318.95680687923	2
0	1210	323.486484587217	3
0	1211	323.566299480173	2
0	1213	323.788075480123	1
0	1215	324.986236146738	0
0	1220	325.961873911393	1
0	1224	327.061719507763	2
0	1228	327.761883984367	3
0	1232	328.155346017791	4
0	1233	328.515394326707	3
0	1235	328.654284899915	2
0	1237	331.957764319974	1
0	1242	333.43134665588	2
0	1243	333.460680784023	1
0	1248	334.082944762174	2
0	1252	335.270304669287	3
0	1253	336.208341962071	2
0	1258	337.152873433216	3
0	1259	337.431117290038	2
0	1261	337.87216579023	1
0	1266	338.047916719608	2
0	1267	338.371531942062	1
0	1272	339.226376370174	2
0	1276	339.316915351941	3
0	1280	339.885612020048	4
0	1281	340.460703467439	3
0	1286	341.137087574826	4
0	1287	342.251512391434	3
0	1289	344.82962586529	2
0	1294	345.426837824847	3
0	1295	345.503603491804	2
0	1300	345.825986332822	3
0	1301	345.905359113356	2
0	1303	345.97732568662	1
0	1308	346.70664138311	2
0	1309	347.318969585246	1
0	1314	347.43430349214	2
0	1315	347.648898934573	1
0	1317	349.365822255244	0
0	1322	350.024278795812	1
0	1326	350.648544464031	2
0	1327	350.917376738003	1
0	1332	351.495382514278	2
0	1336	352.368433029117	3
0	1337	352.78694962346	2
0	1342	352.979077660256	3
0	1343	353.332017532062	2
0	1348	354.544195606528	3
0	1352	355.136022516642	4
0	1353	355.210230755493	3
0	1358	355.866120690419	4
0	1362	356.073890328082	5
0	1363	356.094072058098	4
0	1365	357.035724629209	3
0	1367	357.959561283622	2
0	1369	357.99421296906	1
0	1374	359.518746437782	2
0	1378	360.575428312005	3
0	1382	361.627280464354	4
0	1383	361.697310084341	3
0	1385	361.894537638639	2
0	1390	363.176121603697	3
0	1391	363.223135094664	2
0	1396	365.049970661617	3
0	1397	366.371422066691	2
0	1402	366.731757983607	3
0	1406	366.897144040264	4
0	1407	367.28921314017	3
0	1409	367.367499908193	2
0	1411	368.761744222341	1
0	1413	369.188477788478	0
0	1418	375.59511376441	1
0	1422	376.506061731399	2
0	1423	377.017832753982	1
0	1428	377.244060189472	2
0	1429	378.185832722809	1
0	1434	378.271614600057	2
0	1438	378.349908912498	3
0	1442	378.457153533586	4
0	1446	378.92768423377	5
0	1447	379.391518879392	4
0	1449	379.420836523496	3
0	1454	379.549222161989	4
0	1458	379.589996854018	5
0	1459	379.971892368575	4
0	1461	380.20321084712	3
0	1466	380.649081897135	4
0	1467	381.143716052075	3
0	1472	382.2052143925	4
0	1473	383.656756220352	3
0	1475	384.732045622457	2
0	1480	384.776170481332	3
0	1481	384.941898781736	2
0	1483	384.961956938424	1
0	1485	386.151467012623	0
0	1490	389.072242195337	1
0	1494	389.408994304291	2
0	1495	390.188348161288	1
0	1500	390.631202657115	2
0	1501	393.492415060302	1
0	1506	397.572731900264	2
0	1510	398.326214579428	3
0	1511	398.949456186815	2
0	1513	402.579263988456	1
0	1515	403.196459065488	0
0	1520	404.131300180105	1
0	1524	404.759993745363	2
0	1528	404.861780845295	3
0	1529	405.881879745386	2
0	1534	406.858391449138	3
0	1535	407.094353108954	2
0	1540	407.806607366753	3
0	1541	407.822294725063	2
0	1546	408.323740677713	3
0	1550	408.867118907601	4
0	1554	409.429674077982	5
0	1555	409.924732393693	4
0	1557	410.346817796703	3
0	1559	410.56337917649	2
0	1564	411.602604158472	3
0	1565	411.994078223358	2
0	1570	412.459575940506	3
0	1571	412.552902343323	2
0	1576	413.431332152233	3
0	1577	414.301055095606	2
0	1579	416.690587539198	1
0	1584	416.865543137753	2
0	1585	420.289235580153	1
0	1590	421.373557865892	2
0	1594	422.011090673659	3
0	1595	422.017796069131	2
0	1597	422.15469101174	1
0	1599	424.475554324967	0
0	1604	426.170118512137	1
0	1608	430.378871618674	2
0	1612	433.465505391842	3
0	1616	433.476755127476	4
0	1620	434.060022688228	5
0	1624	434.489794297298	6
0	1625	435.320299669965	5
0	1630	435.54818809469	6
0	1631	436.02436230517	5
0	1633	436.248399380899	4
0	1638	436.731920231052	5
0	1639	436.800928830352	4
0	1641	437.094900806213	3
0	1643	438.744599457747	2
0	1648	439.889201101763	3
0	1649	441.284984535771	2
0	1654	442.458361827126	3
0	1658	442.458574479864	4
0	1659	442.507083657782	3
0	1661	443.441186046442	2
0	1663	443.620604507829	1
0	1668	444.117606143873	2
0	1669	446.822854048196	1
0	1671	447.166230117605	0
0	1676	447.644316082254	1
0	1680	447.649063696712	2
0	1681	447.67210772331	1
0	1686	448.408039112605	2
0	1687	449.644396609869	1
0	1689	450.001333653999	0
0	1694	450.894407796123	1
0	1698	451.68456117655	2
0	1702	452.782835821095	3
0	1706	453.868248742632	4
0	1707	454.236954236235	3
0	1709	455.381377124406	2
0	1711	457.743470247865	1
0	1716	457.926518657456	2
0	1720	458.15583863459	3
0	1721	458.337708806329	2
0	1726	459.860679166856	3
0	1727	460.160355060703	2
0	1729	461.420173779962	1
0	1734	461.704339192073	2
0	1738	461.852221053171	3
0	1739	462.122730783128	2
0	1741	462.125178720922	1
0	1746	462.578908905806	2
0	1750	463.853823419536	3
0	1751	464.753762401374	2
0	1753	464.943512651774	1
0	1758	464.973768926389	2
0	1759	467.175843585943	1
0	1761	467.605381925507	0
0	1766	467.861276974322	1
0	1770	468.408640124962	2
0	1774	470.207848320291	3
0	1778	470.694509485885	4
0	1782	471.491158312456	5
0	1786	471.632588622912	6
0	1787	471.666042710108	5
0	1789	472.691850347122	4
0	1791	472.963885620752	3
0	1793	473.803347198826	2
0	1795	474.183965032902	1
0	1800	474.21931742653	2
0	1801	474.789297859116	1
0	1806	476.114054343513	2
0	1810	476.362925695351	3
0	1811	476.742624967655	2
0	1813	477.750089335012	1
0	1818	478.688373093141	2
0	1822	479.001724258254	3
0	1823	480.857731257878	2
0	1825	481.236695192807	1
0	1827	483.249339155717	0
0	1832	485.570064021864	1
0	1833	486.157337782326	0
0	1838	488.573727831383	1
0	1839	488.832429278052	0
0	1844	493.247046764139	1
0	1845	495.2208037227	0
0	1850	496.315514963317	1
0	1854	497.73686219309	2
0	1858	498.019921726844	3
0	1862	498.542157895173	4
0	1863	498.573275985691	3
0	1865	498.707261770274	2
0	1870	500.460271856012	3
0	1871	501.312088624509	2
0	1873	501.88064751348	1
0	1878	503.390459259865	2
0	1879	503.518360838479	1
0	1884	504.932266094641	2
0	1885	505.189287139821	1
0	1890	505.849100877707	2
0	1894	508.064521073778	3
0	1898	509.108804255068	4
0	1899	509.310132063297	3
0	1904	509.991870721256	4
0	1905	510.464452636756	3
0	1907	511.262315581276	2
0	1912	512.467282393283	3
0	1913	512.529207018075	2
0	1918	514.096881544746	3
0	1919	514.851906008815	2
0	1921	516.96323950916	1
0	1923	518.937999750757	0
0	1928	525.708351609577	1
0	1929	526.40765713027	0
0	1934	526.644666686678	1
0	1935	527.108502838946	0
0	1940	529.058824623908	1
0	1944	530.629300259496	2
0	1945	530.808390432678	1
0	1950	531.804654061051	2
0	1954	532.520034399804	3
0	1955	532.669683096873	2
0	1957	532.694247666763	1
0	1962	534.403664049543	2
0	1963	534.662116057271	1
0	1968	536.493796578498	2
0	1969	536.969080908433	1
0	1974	540.583732300887	2
0	1975	542.374597812634	1
0	1980	542.387905094461	2
0	1984	542.716993281844	3
0	1985	543.023996893526	2
0	1987	545.14759960633	1
0	1992	546.132435641912	2
0	1996	546.4819712292	3
0	1997	547.154565736568	2
0	2002	548.643684976938	3
0	2006	549.032396442626	4
0	2007	550.309450897846	3
0	2012	550.356463610246	4
0	2013	550.458045667097	3
0	2015	551.044586629739	2
0	2020	552.856878007841	3
0	2021	552.961333036351	2
0	2023	553.469003507007	1
0	2028	554.169356630043	2
0	2032	554.472767021499	3
0	2033	554.50357774016	2
0	2035	557.036807592077	1
0	2040	557.09727469009	2
0	2041	559.279181999063	1
0	2046	560.443051592311	2
0	2047	561.012677149398	1
0	2052	563.016460265915	2
0	2053	563.394702691114	1
0	2055	565.126411112846	0
0	2060	565.24431193002	1
0	2064	565.857669724403	2
0	2068	566.503800068137	3
0	2069	567.45741852281	2
0	2071	568.803979211291	1
0	2076	570.190316487684	2
0	2077	571.448901126182	1
0	2082	571.640631279203	2
0	2083	572.056958449183	1
0	2085	572.456922395893	0
0	2090	575.162193579407	1
0	2094	577.149243060666	2
0	2095	578.423624240585	1
0	2100	578.710523228516	2
0	2101	581.556416341825	1
0	2106	582.203463322314	2
0	2110	584.468730103117	3
0	2111	585.206080471214	2
0	2113	585.380430512695	1
0	2118	586.83887928942	2
0	2122	587.333696716072	3
0	2123	587.3631507633	2
0	2125	587.752999015474	1
0	2130	591.946027637301	2
0	2134	592.228270647498	3
0	2138	592.498195458372	4
0	2139	592.653151889905	3
0	2141	592.713852074694	2
0	2146	592.830769680844	3
0	2150	593.673379139391	4
0	2154	593.690385061045	5
0	2155	593.843328351321	4
0	2157	593.965063796697	3
0	2162	593.973700978075	4
0	2163	594.346581619058	3
0	2165	596.283446891084	2
0	2170	596.559624137711	3
0	2171	599.64122846207	2
0	2173	600.062304260817	1
0	2178	600.098708551287	2
0	2182	600.125949595288	3
0	2186	600.264689367182	4
0	2187	600.39942959772	3
0	2192	600.501929547452	4
0	2193	600.982657586633	3
0	2198	601.201795851428	4
0	2202	601.49134786098	5
0	2203	601.591682935901	4
0	2205	601.624660824436	3
0	2210	603.677708245759	4
0	2211	603.806831120834	3
0	2213	604.057929011505	2
0	2218	604.439030877219	3
0	2219	604.953143441813	2
0	2224	605.231165662751	3
0	2225	605.393562663904	2
0	2230	605.584779190663	3
0	2234	605.717201773751	4
0	2235	607.527494129802	3
0	2237	607.738873744887	2
0	2239	607.893816502975	1
0	2241	608.157190696555	0
0	2246	608.421659459124	1
0	2247	610.165066076578	0
0	2252	610.902602801733	1
0	2256	612.255127624323	2
0	2257	614.452539530202	1
0	2259	616.055196484588	0
0	2264	616.186527751793	1
0	2268	617.603574837208	2
0	2269	617.717683762095	1
0	2274	619.319760452196	2
0	2278	619.905544944174	3
0	2279	620.422993714828	2
0	2281	621.851333191582	1
0	2286	622.045327682949	2
0	2287	622.361980589726	1
0	2289	622.727164967192	0
0	2294	624.157601989696	1
0	2298	624.289453707238	2
0	2302	624.361418543485	3
0	2306	626.470677168051	4
0	2307	627.014881245553	3
0	2312	627.263633610569	4
0	2313	627.474435287792	3
0	2315	627.63457955091	2
0	2317	628.333000660933	1
0	2319	629.748347698917	0
0	2324	632.184177595006	1
0	2325	632.298312137038	0
0	2330	634.506112675474	1
0	2334	636.361160105887	2
0	2335	636.887267146262	1
0	2337	636.963096380438	0
0	2342	643.059431927664	1
0	2343	643.994898010441	0
0	2348	646.705830205216	1
0	2349	647.512261845749	0
0	2354	648.765739536946	1
0	2355	648.824350750827	0
0	2360	649.355218681058	1
0	2361	649.848733482006	0
0	2366	650.189015079919	1
0	2367	650.292486673698	0
0	2372	650.766347887402	1
0	2376	651.440492029063	2
0	2377	652.781629114408	1
0	2382	656.58816306436	2
0	2386	657.319459205131	3
0	2387	658.913755730209	2
0	2392	658.998975338796	3
0	2393	659.874765167448	2
0	2398	659.916139780714	3
0	2399	660.726494953904	2
0	2401	661.825044857447	1
0	2403	662.791099538104	0
0	2408	663.082702918593	1
0	2412	663.152001283865	2
0	2416	663.639405598436	3
0	2420	666.117043776876	4
0	2421	666.489437341632	3
0	2423	667.315310395136	2
0	2425	667.532646910103	1
0	2430	668.094026719878	2
0	2434	668.51378308107	3
0	2435	670.268112802452	2
0	2437	670.308771454981	1
0	2442	671.402589017678	2
0	2443	671.8721853239	1
0	2445	673.82320637734	0
0	2450	675.932259187874	1
0	2454	678.142658135709	2
0	2458	678.641562629933	3
0	2459	679.098873199489	2
0	2464	679.79287392737	3
0	2465	680.902176877181	2
0	2470	681.480806330719	3
0	2474	681.716082117222	4
0	2475	681.917999197696	3
0	2477	682.804013277904	2
0	2482	683.218836136192	3
0	2486	683.441087741093	4
0	2490	683.501237194739	5
0	2494	684.469005371778	6
0	2495	685.187205040279	5
0	2497	685.325928990001	4
0	2499	685.463758214473	3
0	2501	685.886105697987	2
0	2506	687.112292967596	3
0	2510	687.390910019649	4
0	2511	688.04879397881	3
0	2513	688.255652440636	2
0	2518	688.494253187972	3
0	2519	688.676351723993	2
0	2524	689.338174860686	3
0	2525	689.424672447279	2
0	2527	689.627540015192	1
0	2529	689.945200845255	0
0	2534	690.387978877689	1
0	2538	690.624485787202	2
0	2539	690.962186668772	1
0	2541	692.359949352928	0
0	2546	692.389105732566	1
0	2547	697.386086648805	0
0	2552	698.438026499623	1
0	2556	699.005463283533	2
0	2560	700.822194774018	3
0	2561	701.580170632929	2
0	2563	701.854547547029	1
0	2568	702.161647179412	2
0	2572	702.290199541654	3
0	2573	705.326464505892	2
0	2575	705.337875684973	1
0	2577	705.675297378249	0
0	2582	708.82203323526	1
0	2586	709.031821663284	2
0	2590	710.202386622379	3
0	2591	710.923000274694	2
0	2596	713.015279579355	3
0	2600	713.724143326437	4
0	2604	714.815376945952	5
0	2605	715.132784948141	4
0	2607	716.579392895217	3
0	2612	718.484206833	4
0	2613	719.136797119355	3
0	2618	720.031503709727	4
0	2619	720.057594639634	3
0	2621	720.930265436978	2
0	2623	722.249878279217	1
0	2625	726.86818052774	0
0	2630	727.950153100169	1
0	2631	728.969798684504	0
0	2636	730.611979484462	1
0	2640	731.094160052826	2
0	2644	731.424250401484	3
0	2645	731.994282525777	2
0	2647	732.850684106568	1
0	2652	733.987894537195	2
0	2653	734.352794843229	1
0	2655	736.136063982837	0
0	2660	736.50586517187	1
0	2664	739.699008546753	2
0	2665	741.30255511402	1
0	2667	742.839105183907	0
0	2672	743.055035627242	1
0	2676	743.298300465368	2
0	2677	744.307406065176	1
0	2679	745.14497149304	0
0	2684	747.993089457935	1
0	2688	750.970790278674	2
0	2689	751.030634001999	1
0	2691	752.349011341634	0
0	2696	752.465519582788	1
0	2700	754.626752163655	2
0	2701	754.79209793924	1
0	2706	755.848665773349	2
0	2710	758.589230981136	3
0	2711	758.92188291045	2
0	2713	758.934048145795	1
0	2718	759.960318376467	2
0	2722	760.910948544589	3
0	2726	761.01744687317	4
0	2727	761.344301204424	3
0	2729	761.515847286303	2
0	2731	762.104235722877	1
0	2736	763.899214243317	2
0	2737	763.904497854379	1
0	2742	763.983338799456	2
0	2743	764.021993383656	1
0	2748	764.204898958529	2
0	2752	768.294376613363	3
0	2753	769.153593917418	2
0	2755	769.255271712563	1
0	2760	770.240506866523	2
0	2764	770.595896508897	3
0	2765	770.981714473072	2
0	2767	771.222228133558	1
0	2769	774.221244246824	0
0	2774	777.584725577224	1
0	2778	778.262711719381	2
0	2779	779.550478364164	1
0	2784	781.515216488445	2
0	2788	782.534920010639	3
0	2789	783.373566104918	2
0	2794	783.463776549709	3
0	2798	784.170438517889	4
0	2799	784.970654452453	3
0	2804	785.283790723131	4
0	2808	786.185134494813	5
0	2812	786.214325102024	6
0	2813	786.251106695386	5
0	2815	786.340806694988	4
0	2820	786.561033872036	5
0	2824	788.029281788751	6
0	2828	788.569584628119	7
0	2829	788.907968140558	6
0	2831	789.044711768729	5
0	2833	790.610495644656	4
0	2838	792.417142083835	5
0	2839	793.042173710419	4
0	2844	793.326674728358	5
0	2848	793.489943201912	6
0	2852	793.616009996607	7
0	2853	794.173226127256	6
0	2855	794.519721112184	5
0	2857	794.714161730344	4
0	2862	796.025989790762	5
0	2866	796.241225828819	6
0	2870	796.662814974401	7
0	2874	796.971108441112	8
0	2875	797.087518955093	7
0	2877	797.127808599475	6
0	2879	797.253419570918	5
0	2881	797.350719290123	4
0	2883	797.471765421628	3
0	2885	797.551092825824	2
0	2887	798.953579992535	1
0	2892	799.460847881039	2
0	2896	799.769534383618	3
0	2897	800.109642811222	2
0	2899	800.524697826499	1
0	2904	802.198199715991	2
0	2905	802.639371923887	1
0	2910	807.158792412984	2
0	2914	807.708292746109	3
0	2918	809.526700010142	4
0	2919	810.190709116924	3
0	2921	810.266636272531	2
0	2923	810.445280240334	1
0	2925	810.682849549032	0
0	2930	812.958021907959	1
0	2934	814.826443833863	2
0	2935	815.204933293789	1
0	2940	817.07225486979	2
0	2944	817.659041167958	3
0	2948	817.799096964802	4
0	2949	817.858886176888	3
0	2951	818.121250285158	2
0	2953	818.266633125889	1
0	2955	819.721232353912	0
0	2960	820.281126856643	1
0	2961	824.360916552833	0
0	2966	824.569396310594	1
0	2967	824.686533901262	0
0	2972	829.874151884022	1
0	2973	831.579938071647	0
0	2978	832.330742254116	1
0	2982	836.117822357582	2
0	2983	836.158472195215	1
0	2988	836.48283212885	2
0	2992	836.793784594912	3
0	2996	836.87338415729	4
0	2997	836.963694768987	3
0	2999	837.683630144912	2
0	3001	838.618815551758	1
0	3003	838.752961455908	0
0	3008	849.642101616412	1
0	3009	849.676584602406	0
0	3014	852.650866898231	1
0	3015	853.860567695077	0
0	3020	857.352595620433	1
0	3021	857.542792584993	0
0	3026	860.222769220062	1
0	3027	862.957973900935	0
0	3032	863.431591462445	1
0	3036	863.880704803032	2
0	3037	865.474472367124	1
0	3042	865.800095797457	2
0	3043	865.917167261725	1
0	3045	869.944163993851	0
0	3050	872.30964575466	1
0	3051	872.562538813775	0
0	3056	874.055231038162	1
0	3057	874.31162542427	0
0	3062	876.933444649386	1
0	3066	879.770369314113	2
0	3067	881.905665364857	1
0	3072	881.945381577227	2
0	3073	881.996544821433	1
0	3075	884.60911118934	0
0	3080	886.368127611157	1
0	3084	887.60397504601	2
0	3088	888.880333449184	3
0	3089	890.417196934914	2
0	3094	890.915186615948	3
0	3095	891.929548316545	2
0	3097	892.294330791687	1
0	3102	894.343716800581	2
0	3103	894.871468720895	1
0	3108	896.8557970472	2
0	3112	897.071263945033	3
0	3113	897.525821924711	2
0	3115	899.735306884444	1
0	3117	899.899103014215	0
0	3122	904.481645461944	1
0	3123	905.260895396182	0
0	3128	906.691882465202	1
0	3132	909.387537088859	2
0	3133	912.217846008066	1
0	3138	912.685395174243	2
0	3139	913.431340822251	1
0	3141	914.96813652749	0
0	3146	918.056560534624	1
0	3150	918.179997248583	2
0	3154	918.396989613639	3
0	3158	920.397248123767	4
0	3159	920.48330901159	3
0	3161	921.225112810001	2
0	3166	921.902983512205	3
0	3167	922.623440446653	2
0	3169	923.056770868108	1
0	3174	923.214050853067	2
0	3175	923.229559913756	1
0	3180	923.367055073304	2
0	3181	923.442204859625	1
0	3186	924.132182636083	2
0	3190	924.855639580827	3
0	3191	924.964848452432	2
0	3193	925.42039176759	1
0	3198	927.244526215797	2
0	3199	927.64598694605	1
0	3204	927.757667969759	2
0	3205	928.765200867799	1
0	3210	928.819727551061	2
0	3211	928.989774882616	1
0	3213	930.79635712406	0
0	3218	932.161439312851	1
0	3222	933.495097256328	2
0	3226	933.879015778004	3
0	3227	934.547255661991	2
0	3229	934.779861080671	1
0	3234	934.8334347689	2
0	3235	935.048453158182	1
0	3240	935.486716826184	2
0	3241	936.137212346712	1
0	3246	937.518985528649	2
0	3247	938.799342133043	1
0	3252	940.90057999569	2
0	3253	941.230071690224	1
0	3258	942.920599848447	2
0	3262	944.303710549677	3
0	3263	944.46199925095	2
0	3265	944.596045132823	1
0	3267	945.066213327271	0
0	3272	945.294786987936	1
0	3273	947.403433061331	0
0	3278	952.57622943512	1
0	3282	954.971952441055	2
0	3283	954.987866105071	1
0	3288	955.146207257507	2
0	3292	955.40341492558	3
0	3293	955.429670684533	2
0	3295	955.576887008709	1
0	3300	955.942321605126	2
0	3304	956.566260207216	3
0	3305	956.647493513009	2
0	3310	957.425167923086	3
0	3314	958.545477314528	4
0	3315	959.208979179454	3
0	3317	959.628167452626	2
0	3322	959.807840489818	3
0	3326	961.578839623341	4
0	3327	962.413250992624	3
0	3332	962.65896646161	4
0	3336	964.519054375461	5
0	3337	964.767980355391	4
0	3342	965.389802314735	5
0	3343	966.666556189185	4
0	3345	967.36661589425	3
0	3347	967.932665336534	2
0	3349	969.284896013977	1
0	3354	970.019066869262	2
0	3355	970.046309277535	1
0	3360	970.96779539789	2
0	3361	971.242054724029	1
0	3363	971.328382549017	0
0	3368	973.168380753072	1
0	3372	974.158221862021	2
0	3373	974.170920440048	1
0	3378	974.6441443161	2
0	3382	974.798699019309	3
0	3383	974.873180561418	2
0	3385	975.224396915116	1
0	3390	978.650048645071	2
0	3394	979.375175534646	3
0	3395	980.224147232656	2
0	3397	980.457782529499	1
0	3402	981.209926466331	2
0	3406	981.735873228153	3
0	3410	981.907355080475	4
0	3411	981.929701130243	3
0	3413	982.209867574478	2
0	3415	982.621655574158	1
0	3417	987.199749896023	0
0	3422	987.322892410281	1
0	3426	988.463866482361	2
0	3427	988.864372175359	1
0	3429	992.403306443227	0
0	3434	995.568971872312	1
0	3435	998.703133925511	0
1	488	100.440737215063	26
1	490	101.080712596514	27
1	492	102.35679479164	26
1	496	102.645836183972	25
1	500	103.558147346445	26
1	502	104.502189157072	25
1	506	105.08948558552	26
1	508	105.167961671659	25
1	512	105.245145449905	26
1	514	105.575950499803	27
1	516	106.58005299542	26
1	520	106.658492122404	25
1	524	107.466756398584	24
1	528	107.46730152894	23
1	532	107.49000811772	24
1	534	107.663231894652	25
1	536	109.652495179494	24
1	540	109.913230995438	25
1	542	109.968027986301	26
1	544	110.600327863289	25
1	548	111.586322015495	26
1	550	111.639644598819	27
1	552	113.353665321963	26
1	556	113.552889529268	27
1	558	113.656650583586	26
1	562	114.638858179811	25
1	566	115.884076820355	26
1	568	118.666040587713	25
1	572	120.715920040755	26
1	574	124.952340463097	25
1	578	125.2206230182	26
1	580	126.285559991683	25
1	584	126.509509251895	24
1	588	127.340653139504	23
1	592	127.658886373606	24
1	594	128.029163827459	25
1	596	129.541292118142	26
1	598	130.951203412286	25
1	602	132.203832090569	24
1	606	132.398740467389	23
1	610	132.610320986773	24
1	612	133.540423379435	25
1	614	136.256569294402	24
1	618	136.279672117804	25
1	620	137.07930885816	24
1	624	137.974916973184	25
1	626	138.130405048298	26
1	628	138.942862649713	25
1	632	139.181927121916	24
1	636	140.752103176158	23
1	640	140.865502916744	24
1	642	141.64838945769	25
1	644	141.827754291943	26
1	646	142.746826990853	27
1	648	143.303746880322	26
1	652	144.599126684724	27
1	654	147.320824016499	26
1	658	147.638114842842	25
1	662	147.856363519061	24
1	666	148.706982206672	25
1	668	149.205229022739	24
1	672	149.264456519087	23
1	676	149.784638533289	24
1	678	149.80559963539	25
1	680	150.010738091758	26
1	682	151.071506397565	25
1	686	151.226895104293	26
1	688	151.532460842009	25
1	692	151.985767694435	24
1	696	152.328849643352	25
1	698	152.562901113579	26
1	700	152.769095779538	27
1	702	155.703180683825	26
1	706	155.83026698775	25
1	710	156.294522062206	26
1	712	157.213486451749	25
1	716	157.784766705	24
1	720	158.525421258363	25
1	722	158.577214669844	24
1	726	158.57760205296	25
1	728	158.583055361034	24
1	732	158.922156930904	25
1	734	159.283425007925	24
1	738	162.340390911698	25
1	740	162.766202324138	26
1	742	163.378236126156	27
1	744	167.952050684331	26
1	748	168.496541591488	25
1	752	169.855470409848	26
1	754	171.140526909019	25
1	758	171.23235972631	26
1	760	171.619696091801	27
1	762	177.69125455979	26
1	766	178.301405352513	27
1	768	181.070987038844	26
1	772	183.440811434576	25
1	776	183.590361828896	26
1	778	183.914019146995	25
1	782	184.178509112864	26
1	784	184.771520513273	27
1	786	185.372994563174	26
1	790	187.718329922629	27
1	792	191.351302007773	26
1	796	192.122851168855	27
1	798	193.732585257025	26
1	802	195.173530464576	27
1	804	198.433296272657	26
1	808	200.520933352931	25
1	812	201.368096229777	24
1	816	201.503578938689	23
1	820	202.002112218973	22
1	824	202.047026828436	23
1	826	202.297658593024	22
1	830	203.790883512175	23
1	832	203.877416784361	24