version 3
run General-24-20221103-10:28:22-6760
attr configname General
attr datetime 20221103-10:28:22
attr datetimef 20221103-102822
attr experiment General
attr inifile block.ini
attr iterationvars "$0=3, $1=20"
attr iterationvarsd 3/20
attr iterationvarsf 3,20-
attr measurement "$0=3, $1=20"
attr network Block
attr processid 6760
attr repetition 4
attr replication #4
attr resultdir results
attr runnumber 24
attr seedset 24
config network Block
config repeat 5
config sim-time-limit 1000s
config warmup-period 100s
config **.alloca.resourceModuleName "\"risorse\""
config **.dealloca.resourceModuleName "\"risorse\""
config **.is.delay exponential(3s)
config **.servente.serviceTime exponential(3s)
config **.dealloca.resourceAmount 2
config **.alloca.resourceAmount 2
config **.risorse.amount 6
config **.sorgente.numJobs (20)
config **.result-recording-modes all

vector 0 Block.servente queueLength:vector ETV
attr interpolationmode sample-hold
attr recordingmode vector
attr title "queue length"
vector 1 Block.servente queueingTime:vector ETV
attr interpolationmode none
attr recordingmode vector
attr title "queueing time at dequeue"
attr unit s
vector 2 Block.alloca queueLength:vector ETV
attr interpolationmode sample-hold
attr recordingmode vector
attr title "queue length"
vector 3 Block.alloca queueingTime:vector ETV
attr interpolationmode none
attr recordingmode vector
attr title "queueing time at dequeue"
attr unit s
vector 4 Block.risorse amount:vector ETV
attr interpolationmode sample-hold
attr recordingmode vector
attr title "available resource"
vector 5 Block.is delayedJobs:vector ETV
attr interpolationmode sample-hold
attr recordingmode vector
attr title "number of delayed jobs"
0	251	100.205786080757	1
0	253	100.205786080757	2
0	257	101.121119749286	1
0	259	101.121119749286	2
0	263	104.580403128424	1
0	265	104.580403128424	2
0	269	106.483539569642	1
0	271	106.483539569642	2
0	275	109.12186704789	1
0	277	109.12186704789	2
0	279	111.968919765445	1
0	281	111.968919765445	2
0	285	117.165647030823	1
0	287	117.165647030823	2
0	291	117.702612542674	1
0	293	117.702612542674	2
0	295	120.741721621767	1
0	297	120.741721621767	2
0	301	126.423213814813	1
0	303	126.423213814813	2
0	307	127.449394905517	1
0	309	127.449394905517	2
0	311	127.605483474379	1
0	313	127.605483474379	2
0	323	151.297376870779	1
0	325	151.297376870779	2
0	327	152.631766185534	1
0	329	152.631766185534	2
0	333	154.657937170057	1
0	335	154.657937170057	2
0	339	156.378465339928	1
0	341	156.378465339928	2
0	345	160.824918125025	1
0	347	160.824918125025	2
0	353	163.803600592074	1
0	355	163.803600592074	2
0	359	165.726315924835	1
0	361	165.726315924835	2
0	365	168.092561828956	1
0	367	168.092561828956	2
0	369	169.786672574244	1
0	371	169.786672574244	2
0	375	171.652975048575	1
0	377	171.652975048575	2
0	383	175.364007877847	1
0	385	175.364007877847	2
0	387	175.479228644125	1
0	389	175.479228644125	2
0	393	177.673719212205	1
0	395	177.673719212205	2
0	397	178.001272974441	1
0	399	178.001272974441	2
0	405	180.808242400432	1
0	407	180.808242400432	2
0	409	183.293137356052	1
0	411	183.293137356052	2
0	417	185.030945738383	1
0	419	185.030945738383	2
0	423	186.021370470758	1
0	425	186.021370470758	2
0	429	187.30352684277	1
0	431	187.30352684277	2
0	437	201.490353461697	1
0	439	201.490353461697	2
0	443	205.606102807881	1
0	445	205.606102807881	2
0	449	211.847406454105	1
0	451	211.847406454105	2
0	453	219.892432153353	1
0	455	219.892432153353	2
0	457	222.32137954096	1
0	459	222.32137954096	2
0	467	228.924966588833	1
0	469	228.924966588833	2
0	471	229.530681509079	1
0	473	229.530681509079	2
0	475	230.666018965778	1
0	477	230.666018965778	2
0	479	230.896888071017	1
0	481	230.896888071017	2
0	487	232.075679640319	1
0	489	232.075679640319	2
0	497	240.273976807416	1
0	499	240.273976807416	2
0	503	248.889864208051	1
0	505	248.889864208051	2
0	507	249.151591237176	1
0	509	249.151591237176	2
0	513	249.802365715297	1
0	515	249.802365715297	2
0	519	250.793932168746	1
0	521	250.793932168746	2
0	523	251.3999684019	1
0	525	251.3999684019	2
0	533	258.115151360596	1
0	535	258.115151360596	2
0	539	261.440904729275	1
0	541	261.440904729275	2
0	543	262.010270985597	1
0	545	262.010270985597	2
0	551	267.554073756743	1
0	553	267.554073756743	2
0	555	270.160484946408	1
0	557	270.160484946408	2
0	561	270.673943026726	1
0	563	270.673943026726	2
0	565	271.110610878523	1
0	567	271.110610878523	2
0	573	273.747360784319	1
0	575	273.747360784319	2
0	579	274.275208316214	1
0	581	274.275208316214	2
0	583	275.647411697647	1
0	585	275.647411697647	2
0	593	285.700490111295	1
0	595	285.700490111295	2
0	599	289.624897783177	1
0	601	289.624897783177	2
0	603	293.531244352029	1
0	605	293.531244352029	2
0	611	295.655477189411	1
0	613	295.655477189411	2
0	615	296.061579648187	1
0	617	296.061579648187	2
0	619	296.325489898469	1
0	621	296.325489898469	2
0	625	297.860888545653	1
0	627	297.860888545653	2
0	635	310.620613391765	1
0	637	310.620613391765	2
0	639	311.794865065993	1
0	641	311.794865065993	2
0	647	313.273679166315	1
0	649	313.273679166315	2
0	653	314.746045991181	1
0	655	314.746045991181	2
0	659	315.486102644459	1
0	661	315.486102644459	2
0	663	315.880798582577	1
0	665	315.880798582577	2
0	667	317.197675781271	1
0	669	317.197675781271	2
0	673	320.082819007593	1
0	675	320.082819007593	2
0	679	321.235119972592	1
0	681	321.235119972592	2
0	689	324.261008404709	1
0	691	324.261008404709	2
0	693	325.459008322042	1
0	695	325.459008322042	2
0	701	327.96245617296	1
0	703	327.96245617296	2
0	707	336.160996611682	1
0	709	336.160996611682	2
0	713	341.275314706631	1
0	715	341.275314706631	2
0	719	344.275561545051	1
0	721	344.275561545051	2
0	725	348.498337527131	1
0	727	348.498337527131	2
0	731	350.772743442797	1
0	733	350.772743442797	2
0	737	354.646291197487	1
0	739	354.646291197487	2
0	741	355.65973997666	1
0	743	355.65973997666	2
0	747	359.250960311805	1
0	749	359.250960311805	2
0	755	366.103867409077	1
0	757	366.103867409077	2
0	761	378.894889261561	1
0	763	378.894889261561	2
0	767	396.550728467842	1
0	769	396.550728467842	2
0	771	399.186106354147	1
0	773	399.186106354147	2
0	779	406.228485353826	1
0	781	406.228485353826	2
0	783	406.287235917105	1
0	785	406.287235917105	2
0	789	408.485585991093	1
0	791	408.485585991093	2
0	793	409.398711667339	1
0	795	409.398711667339	2
0	799	412.617763243225	1
0	801	412.617763243225	2
0	809	415.78178984431	1
0	811	415.78178984431	2
0	813	417.962482268598	1
0	815	417.962482268598	2
0	819	419.195308427788	1
0	821	419.195308427788	2
0	825	422.05676779802	1
0	827	422.05676779802	2
0	831	427.397069780001	1
0	833	427.397069780001	2
0	837	427.919308162359	1
0	839	427.919308162359	2
0	841	428.914848214745	1
0	843	428.914848214745	2
0	845	429.515524649022	1
0	847	429.515524649022	2
0	855	433.512058365133	1
0	857	433.512058365133	2
0	863	437.946181078842	1
0	865	437.946181078842	2
0	869	441.506216153311	1
0	871	441.506216153311	2
0	873	442.809571419689	1
0	875	442.809571419689	2
0	879	447.643969313416	1
0	881	447.643969313416	2
0	885	448.755283154992	1
0	887	448.755283154992	2
0	889	448.966826120005	1
0	891	448.966826120005	2
0	899	451.903204715453	1
0	901	451.903204715453	2
0	903	452.408102287772	1
0	905	452.408102287772	2
0	907	453.669145008213	1
0	909	453.669145008213	2
0	915	456.438864989813	1
0	917	456.438864989813	2
0	923	462.509413331294	1
0	925	462.509413331294	2
0	929	470.380116258024	1
0	931	470.380116258024	2
0	935	474.073169806501	1
0	937	474.073169806501	2
0	941	481.743919107029	1
0	943	481.743919107029	2
0	947	490.979628604516	1
0	949	490.979628604516	2
0	953	496.839568596186	1
0	955	496.839568596186	2
0	959	506.636347568024	1
0	961	506.636347568024	2
0	963	510.465791984984	1
0	965	510.465791984984	2
0	969	511.20830022351	1
0	971	511.20830022351	2
0	973	511.454608094854	1
0	975	511.454608094854	2
0	979	513.01640389692	1
0	981	513.01640389692	2
0	987	517.644674759187	1
0	989	517.644674759187	2
0	995	520.496353829853	1
0	997	520.496353829853	2
0	1001	524.332013756578	1
0	1003	524.332013756578	2
0	1005	524.751069787367	1
0	1007	524.751069787367	2
0	1013	537.805702619524	1
0	1015	537.805702619524	2
0	1017	538.861403017189	1
0	1019	538.861403017189	2
0	1023	539.656946616262	1
0	1025	539.656946616262	2
0	1027	540.182859966539	1
0	1029	540.182859966539	2
0	1035	543.646662526967	1
0	1037	543.646662526967	2
0	1043	558.634956485589	1
0	1045	558.634956485589	2
0	1047	558.811109617132	1
0	1049	558.811109617132	2
0	1051	560.907062133887	1
0	1053	560.907062133887	2
0	1059	562.054556816089	1
0	1061	562.054556816089	2
0	1065	566.487483796699	1
0	1067	566.487483796699	2
0	1069	566.961299857426	1
0	1071	566.961299857426	2
0	1079	571.461311419946	1
0	1081	571.461311419946	2
0	1083	572.788510274243	1
0	1085	572.788510274243	2
0	1089	572.882011569756	1
0	1091	572.882011569756	2
0	1095	578.998252924287	1
0	1097	578.998252924287	2
0	1101	583.565910196207	1
0	1103	583.565910196207	2
0	1105	584.117865497001	1
0	1107	584.117865497001	2
0	1115	593.046118203097	1
0	1117	593.046118203097	2
0	1121	602.202024714904	1
0	1123	602.202024714904	2
0	1125	602.379342187408	1
0	1127	602.379342187408	2
0	1131	603.436387244564	1
0	1133	603.436387244564	2
0	1137	606.6047755768	1
0	1139	606.6047755768	2
0	1145	614.199140063842	1
0	1147	614.199140063842	2
0	1149	614.293741787621	1
0	1151	614.293741787621	2
0	1157	617.213409139462	1
0	1159	617.213409139462	2
0	1161	617.393177039299	1
0	1163	617.393177039299	2
0	1169	621.716687100739	1
0	1171	621.716687100739	2
0	1173	622.730786418939	1
0	1175	622.730786418939	2
0	1179	624.570762788713	1
0	1181	624.570762788713	2
0	1187	631.97279923441	1
0	1189	631.97279923441	2
0	1191	632.012191695806	1
0	1193	632.012191695806	2
0	1197	634.113319342298	1
0	1199	634.113319342298	2
0	1201	634.34842922584	1
0	1203	634.34842922584	2
0	1207	635.539371468494	1
0	1209	635.539371468494	2
0	1211	635.643492825809	1
0	1213	635.643492825809	2
0	1221	635.937011060162	1
0	1223	635.937011060162	2
0	1227	639.282705253887	1
0	1229	639.282705253887	2
0	1235	655.236003749027	1
0	1237	655.236003749027	2
0	1239	659.948858354753	1
0	1241	659.948858354753	2
0	1243	660.226776414801	1
0	1245	660.226776414801	2
0	1247	662.401795524436	1
0	1249	662.401795524436	2
0	1257	669.274351317798	1
0	1259	669.274351317798	2
0	1261	670.358771890727	1
0	1263	670.358771890727	2
0	1271	675.304748552874	1
0	1273	675.304748552874	2
0	1277	676.761980867298	1
0	1279	676.761980867298	2
0	1283	677.913706427555	1
0	1285	677.913706427555	2
0	1287	679.312636424505	1
0	1289	679.312636424505	2
0	1293	682.097194120922	1
0	1295	682.097194120922	2
0	1297	683.205716590332	1
0	1299	683.205716590332	2
0	1307	692.263497705972	1
0	1309	692.263497705972	2
0	1311	693.682467441689	1
0	1313	693.682467441689	2
0	1317	695.422456024886	1
0	1319	695.422456024886	2
0	1323	696.459546932376	1
0	1325	696.459546932376	2
0	1329	699.055536761529	1
0	1331	699.055536761529	2
0	1335	699.967145154962	1
0	1337	699.967145154962	2
0	1343	703.480208848515	1
0	1345	703.480208848515	2
0	1347	706.618509269376	1
0	1349	706.618509269376	2
0	1355	712.866788551988	1
0	1357	712.866788551988	2
0	1359	715.604157135433	1
0	1361	715.604157135433	2
0	1367	721.764150643106	1
0	1369	721.764150643106	2
0	1373	729.757585143115	1
0	1375	729.757585143115	2
0	1377	730.351280194763	1
0	1379	730.351280194763	2
0	1383	731.71886161965	1
0	1385	731.71886161965	2
0	1387	732.572986226102	1
0	1389	732.572986226102	2
0	1391	733.661422119843	1
0	1393	733.661422119843	2
0	1397	734.260305980791	1
0	1399	734.260305980791	2
0	1409	740.076686841684	1
0	1411	740.076686841684	2
0	1413	740.080466893522	1
0	1415	740.080466893522	2
0	1421	751.380648634496	1
0	1423	751.380648634496	2
0	1427	753.823779703272	1
0	1429	753.823779703272	2
0	1431	754.820443531934	1
0	1433	754.820443531934	2
0	1437	755.635227546228	1
0	1439	755.635227546228	2
0	1441	757.775877506897	1
0	1443	757.775877506897	2
0	1445	760.524822626662	1
0	1447	760.524822626662	2
0	1451	761.071222804949	1
0	1453	761.071222804949	2
0	1457	762.68328285888	1
0	1459	762.68328285888	2
0	1461	763.332782557827	1
0	1463	763.332782557827	2
0	1467	766.373114372317	1
0	1469	766.373114372317	2
0	1471	768.168993637715	1
0	1473	768.168993637715	2
0	1477	769.394688207352	1
0	1479	769.394688207352	2
0	1485	770.405017357528	1
0	1487	770.405017357528	2
0	1489	770.699480716381	1
0	1491	770.699480716381	2
0	1493	771.08478230572	1
0	1495	771.08478230572	2
0	1501	772.151823160965	1
0	1503	772.151823160965	2
0	1505	772.743271059281	1
0	1507	772.743271059281	2
0	1511	774.16213488248	1
0	1513	774.16213488248	2
0	1527	777.730938367815	1
0	1529	777.730938367815	2
0	1531	779.223092768112	1
0	1533	779.223092768112	2
0	1537	780.835355214769	1
0	1539	780.835355214769	2
0	1545	784.009535417206	1
0	1547	784.009535417206	2
0	1553	793.243613324316	1
0	1555	793.243613324316	2
0	1559	804.18064800935	1
0	1561	804.18064800935	2
0	1563	805.855189398649	1
0	1565	805.855189398649	2
0	1567	806.215206010319	1
0	1569	806.215206010319	2
0	1577	814.325508507901	1
0	1579	814.325508507901	2
0	1581	815.017119288883	1
0	1583	815.017119288883	2
0	1587	816.23726443202	1
0	1589	816.23726443202	2
0	1595	826.78230493175	1
0	1597	826.78230493175	2
0	1599	828.660368415434	1
0	1601	828.660368415434	2
0	1605	829.960681186854	1
0	1607	829.960681186854	2
0	1611	837.648713324311	1
0	1613	837.648713324311	2
0	1619	838.30316780004	1
0	1621	838.30316780004	2
0	1623	840.1090744211	1
0	1625	840.1090744211	2
0	1627	840.246773650914	1
0	1629	840.246773650914	2
0	1633	843.292070123907	1
0	1635	843.292070123907	2
0	1639	849.033701193603	1
0	1641	849.033701193603	2
0	1647	854.21489533297	1
0	1649	854.21489533297	2
0	1653	855.936677653457	1
0	1655	855.936677653457	2
0	1661	859.693574772053	1
0	1663	859.693574772053	2
0	1665	860.111740469067	1
0	1667	860.111740469067	2
0	1673	863.27280736599	1
0	1675	863.27280736599	2
0	1679	871.387882741383	1
0	1681	871.387882741383	2
0	1685	873.429841652659	1
0	1687	873.429841652659	2
0	1691	878.500633566454	1
0	1693	878.500633566454	2
0	1695	878.655241082782	1
0	1697	878.655241082782	2
0	1699	878.814185313091	1
0	1701	878.814185313091	2
0	1703	879.114806909751	1
0	1705	879.114806909751	2
0	1709	879.330262473631	1
0	1711	879.330262473631	2
0	1719	881.48015955266	1
0	1721	881.48015955266	2
0	1723	881.703366980018	1
0	1725	881.703366980018	2
0	1729	883.217965273498	1
0	1731	883.217965273498	2
0	1735	883.360076364146	1
0	1737	883.360076364146	2
0	1741	883.999191875657	1
0	1743	883.999191875657	2
0	1747	887.554510145714	1
0	1749	887.554510145714	2
0	1753	890.545508444768	1
0	1755	890.545508444768	2
0	1763	896.100650015033	1
0	1765	896.100650015033	2
0	1767	896.439776707776	1
0	1769	896.439776707776	2
0	1775	903.460621142278	1
0	1777	903.460621142278	2
0	1781	904.665629711792	1
0	1783	904.665629711792	2
0	1787	912.521253541591	1
0	1789	912.521253541591	2
0	1791	916.063142970793	1
0	1793	916.063142970793	2
0	1795	916.484131900493	1
0	1797	916.484131900493	2
0	1803	918.537851759865	1
0	1805	918.537851759865	2
0	1807	918.837047547222	1
0	1809	918.837047547222	2
0	1817	923.188640647041	1
0	1819	923.188640647041	2
0	1821	923.760969220059	1
0	1823	923.760969220059	2
0	1829	924.499726452624	1
0	1831	924.499726452624	2
0	1835	926.568602962173	1
0	1837	926.568602962173	2
0	1839	926.719737267274	1
0	1841	926.719737267274	2
0	1845	929.435329240836	1
0	1847	929.435329240836	2
0	1853	934.703773013236	1
0	1855	934.703773013236	2
0	1857	937.398699368515	1
0	1859	937.398699368515	2
0	1865	951.792919452254	1
0	1867	951.792919452254	2
0	1871	955.270328467566	1
0	1873	955.270328467566	2
0	1877	955.984541440766	1
0	1879	955.984541440766	2
0	1883	956.911494665696	1
0	1885	956.911494665696	2
0	1887	957.014891158419	1
0	1889	957.014891158419	2
0	1891	957.299823273036	1
0	1893	957.299823273036	2
0	1901	965.25641308822	1
0	1903	965.25641308822	2
0	1905	968.410186251002	1
0	1907	968.410186251002	2
0	1909	969.487181215579	1
0	1911	969.487181215579	2
0	1913	969.742301151261	1
0	1915	969.742301151261	2
0	1917	970.02675690868	1
0	1919	970.02675690868	2
0	1925	975.219030266368	1
0	1927	975.219030266368	2
0	1931	976.953361769998	1
0	1933	976.953361769998	2
0	1937	978.071855665948	1
0	1939	978.071855665948	2
0	1949	992.233310427818	1
0	1951	992.233310427818	2
0	1953	993.64094778116	1
0	1955	993.64094778116	2
0	1959	995.703166910365	1
0	1961	995.703166910365	2
0	1965	996.06113520774	1
0	1967	996.06113520774	2
0	1969	996.162675613369	1
0	1971	996.162675613369	2
0	1977	999.121078226661	1
0	1979	999.121078226661	2
1	251	100.205786080757	5.49091829379
1	257	101.121119749286	5.257203805601
1	263	104.580403128424	4.374617047667
1	269	106.483539569642	5.362419820356
1	275	109.12186704789	4.541463919466
1	279	111.968919765445	5.485380195803
1	285	117.165647030823	8.043779982933
1	291	117.702612542674	5.733692777229
1	295	120.741721621767	3.576074590944
1	301	126.423213814813	8.720601272139
1	307	127.449394905517	6.70767328375
1	311	127.605483474379	1.182269659566
1	323	151.297376870779	23.847981965262
1	327	152.631766185534	25.026282711155
1	333	154.657937170057	3.360560299278
1	339	156.378465339928	3.746699154394
1	345	160.824918125025	6.166980954968
1	353	163.803600592074	7.425135252146
1	359	165.726315924835	4.90139779981
1	365	168.092561828956	4.288961236882
1	369	169.786672574244	4.060356649409
1	375	171.652975048575	3.560413219619
1	383	175.364007877847	5.577335303603
1	387	175.479228644125	3.82625359555
1	393	177.673719212205	2.309711334358
1	397	178.001272974441	2.522044330316
1	405	180.808242400432	3.134523188227
1	409	183.293137356052	5.291864381611
1	417	185.030945738383	4.222703337951
1	423	186.021370470758	2.728233114706
1	429	187.30352684277	2.272581104387
1	437	201.490353461697	15.468982990939
1	443	205.606102807881	18.302575965111
1	449	211.847406454105	10.357052992408
1	453	219.892432153353	14.286329345472
1	457	222.32137954096	10.473973086855
1	467	228.924966588833	9.03253443548
1	471	229.530681509079	7.209301968119
1	475	230.666018965778	1.741052376945
1	479	230.896888071017	1.366206561938
1	487	232.075679640319	1.409660674541
1	497	240.273976807416	9.377088736399
1	503	248.889864208051	16.814184567732
1	507	249.151591237176	8.87761442976
1	513	249.802365715297	0.912501507246
1	519	250.793932168746	1.64234093157
1	523	251.3999684019	1.597602686603
1	533	258.115151360596	7.32121919185
1	539	261.440904729275	10.040936327375
1	543	262.010270985597	3.895119625001
1	551	267.554073756743	6.113169027468
1	555	270.160484946408	8.150213960811
1	561	270.673943026726	3.119869269983
1	565	271.110610878523	0.950125932115
1	573	273.747360784319	3.073417757593
1	579	274.275208316214	3.164597437691
1	583	275.647411697647	1.900050913328
1	593	285.700490111295	11.425281795081
1	599	289.624897783177	13.97748608553
1	603	293.531244352029	7.830754240734
1	611	295.655477189411	6.030579406234
1	615	296.061579648187	2.530335296158
1	619	296.325489898469	0.670012709058
1	625	297.860888545653	1.799308897466
1	635	310.620613391765	14.295123493296
1	639	311.794865065993	13.93397652034
1	647	313.273679166315	2.65306577455
1	653	314.746045991181	2.951180925188
1	659	315.486102644459	2.212423478144
1	663	315.880798582577	1.134752591396
1	667	317.197675781271	1.711573136812
1	673	320.082819007593	4.202020425016
1	679	321.235119972592	4.037444191321
1	689	324.261008404709	4.178189397116
1	693	325.459008322042	4.22388834945
1	701	327.96245617296	3.701447768251
1	707	336.160996611682	10.70198828964
1	713	341.275314706631	13.312858533671
1	719	344.275561545051	8.114564933369
1	725	348.498337527131	7.2230228205
1	731	350.772743442797	6.497181897746
1	737	354.646291197487	6.147953670356
1	741	355.65973997666	4.886996533863
1	747	359.250960311805	4.604669114318
1	755	366.103867409077	10.444127432417
1	761	378.894889261561	19.643928949756
1	767	396.550728467842	30.446861058765
1	771	399.186106354147	20.291217092586
1	779	406.228485353826	9.677756885984
1	783	406.287235917105	7.101129562958
1	789	408.485585991093	2.257100637267
1	793	409.398711667339	3.111475750234
1	799	412.617763243225	4.132177252132
1	809	415.78178984431	6.383078176971
1	813	417.962482268598	5.344719025373
1	819	419.195308427788	3.413518583478
1	825	422.05676779802	4.094285529422
1	831	427.397069780001	8.201761352213
1	837	427.919308162359	5.862540364339
1	841	428.914848214745	1.517778434744
1	845	429.515524649022	1.596216486663
1	855	433.512058365133	4.597210150388
1	863	437.946181078842	8.43065642982
1	869	441.506216153311	7.994157788178
1	873	442.809571419689	4.863390340847
1	879	447.643969313416	6.137753160105
1	885	448.755283154992	5.945711735303
1	889	448.966826120005	1.322856806589
1	899	451.903204715453	3.147921560461
1	903	452.408102287772	3.441276167767
1	907	453.669145008213	1.76594029276
1	915	456.438864989813	4.030762702041
1	923	462.509413331294	8.840268323081
1	929	470.380116258024	13.941251268211
1	935	474.073169806501	11.563756475207
1	941	481.743919107029	11.363802849005
1	947	490.979628604516	16.906458798015
1	953	496.839568596186	15.095649489157
1	959	506.636347568024	15.656718963508
1	963	510.465791984984	13.626223388798
1	969	511.20830022351	4.571952655486
1	973	511.454608094854	0.98881610987
1	979	513.01640389692	1.80810367341
1	987	517.644674759187	6.190066664333
1	995	520.496353829853	7.479949932933
1	1001	524.332013756578	6.687338997391
1	1005	524.751069787367	4.254715957514
1	1013	537.805702619524	13.473688862946
1	1017	538.861403017189	14.110333229822
1	1023	539.656946616262	1.851243996738
1	1027	540.182859966539	1.32145694935
1	1035	543.646662526967	3.989715910705
1	1043	558.634956485589	18.45209651905
1	1047	558.811109617132	15.164447090165
1	1051	560.907062133887	2.272105648298
1	1059	562.054556816089	3.243447198957
1	1065	566.487483796699	5.580421662812
1	1069	566.961299857426	4.906743041337
1	1079	571.461311419946	4.973827623247
1	1083	572.788510274243	5.827210416817
1	1089	572.882011569756	1.42070014981
1	1095	578.998252924287	6.209742650044
1	1101	583.565910196207	10.683898626451
1	1105	584.117865497001	5.119612572714
1	1115	593.046118203097	9.48020800689
1	1121	602.202024714904	18.084159217903
1	1125	602.379342187408	9.333223984311
1	1131	603.436387244564	1.23436252966
1	1137	606.6047755768	4.225433389392
1	1145	614.199140063842	10.762752819278
1	1149	614.293741787621	7.688966210821
1	1157	617.213409139462	3.01426907562
1	1161	617.393177039299	3.099435251678
1	1169	621.716687100739	4.503277961277
1	1173	622.730786418939	5.33760937964
1	1179	624.570762788713	2.854075687974
1	1187	631.97279923441	9.242012815471
1	1191	632.012191695806	7.441428907093
1	1197	634.113319342298	2.140520107888
1	1201	634.34842922584	2.336237530034
1	1207	635.539371468494	1.426052126196
1	1211	635.643492825809	1.295063599969
1	1221	635.937011060162	0.397639591668
1	1227	639.282705253887	3.639212428078
1	1235	655.236003749027	19.298992688865
1	1239	659.948858354753	20.666153100866
1	1243	660.226776414801	4.990772665774
1	1247	662.401795524436	2.452937169683
1	1257	669.274351317798	9.047574902997
1	1261	670.358771890727	7.956976366291
1	1271	675.304748552874	6.030397235076
1	1277	676.761980867298	6.403208976571
1	1283	677.913706427555	2.608957874681
1	1287	679.312636424505	2.550655557207
1	1293	682.097194120922	4.183487693367
1	1297	683.205716590332	3.893080165827
1	1307	692.263497705972	10.16630358505
1	1311	693.682467441689	10.476750851357
1	1317	695.422456024886	3.158958318914
1	1323	696.459546932376	2.777079490687
1	1329	699.055536761529	3.633080736643
1	1335	699.967145154962	3.507598222586
1	1343	703.480208848515	4.424672086986
1	1347	706.618509269376	6.651364114414
1	1355	712.866788551988	9.386579703473
1	1359	715.604157135433	8.985647866057
1	1367	721.764150643106	8.897362091118
1	1373	729.757585143115	14.153428007682
1	1377	730.351280194763	8.587129551657
1	1383	731.71886161965	1.961276476535
1	1387	732.572986226102	2.221706031339
1	1391	733.661422119843	1.942560500193
1	1397	734.260305980791	1.687319754689
1	1409	740.076686841684	6.415264721841
1	1413	740.080466893522	5.820160912731
1	1421	751.380648634496	11.303961792812
1	1427	753.823779703272	13.74331280975
1	1431	754.820443531934	3.439794897438
1	1437	755.635227546228	1.811447842956
1	1441	757.775877506897	2.955433974963
1	1445	760.524822626662	4.889595080434
1	1451	761.071222804949	3.295345298052
1	1457	762.68328285888	2.158460232218
1	1461	763.332782557827	2.261559752878
1	1467	766.373114372317	3.689831513437
1	1471	768.168993637715	4.836211079888
1	1477	769.394688207352	3.021573835035
1	1485	770.405017357528	2.236023719813
1	1489	770.699480716381	1.304792509029
1	1493	771.08478230572	0.679764948192
1	1501	772.151823160965	1.452342444584
1	1505	772.743271059281	1.658488753561
1	1511	774.16213488248	2.010311721515
1	1527	777.730938367815	4.987667308534
1	1531	779.223092768112	5.060957885632
1	1537	780.835355214769	3.104416846954
1	1545	784.009535417206	4.786442649094
1	1553	793.243613324316	12.408258109547
1	1559	804.18064800935	20.171112592144
1	1563	805.855189398649	12.611576074333
1	1567	806.215206010319	2.034558000969
1	1577	814.325508507901	8.470319109252
1	1581	815.017119288883	8.801913278564
1	1587	816.23726443202	1.911755924119
1	1595	826.78230493175	11.765185642867
1	1599	828.660368415434	12.423103983414
1	1605	829.960681186854	3.178376255104
1	1611	837.648713324311	8.988344908877
1	1619	838.30316780004	8.342486613186
1	1623	840.1090744211	2.460361096789
1	1627	840.246773650914	1.943605850874
1	1633	843.292070123907	3.182995702807
1	1639	849.033701193603	8.786927542689
1	1647	854.21489533297	10.922825209063
1	1653	855.936677653457	6.902976459854
1	1661	859.693574772053	5.478679439083
1	1665	860.111740469067	4.17506281561
1	1673	863.27280736599	3.579232593937
1	1679	871.387882741383	11.276142272316
1	1685	873.429841652659	10.157034286669
1	1691	878.500633566454	7.112750825071
1	1695	878.655241082782	5.225399430123
1	1699	878.814185313091	0.313551746637
1	1703	879.114806909751	0.459565826969
1	1709	879.330262473631	0.51607716054
1	1719	881.48015955266	2.365352642909
1	1723	881.703366980018	2.373104506387
1	1729	883.217965273498	1.737805720838
1	1735	883.360076364146	1.656709384128
1	1741	883.999191875657	0.781226602159
1	1747	887.554510145714	4.194433781568
1	1753	890.545508444768	6.546316569111
1	1763	896.100650015033	8.546139869319
1	1767	896.439776707776	5.894268263008
1	1775	903.460621142278	7.359971127245
1	1781	904.665629711792	8.225853004016
1	1787	912.521253541591	9.060632399313
1	1791	916.063142970793	11.397513259001
1	1795	916.484131900493	3.962878358902
1	1803	918.537851759865	2.474708789072
1	1807	918.837047547222	2.352915646729
1	1817	923.188640647041	4.650788887176
1	1821	923.760969220059	4.923921672837
1	1829	924.499726452624	1.311085805583
1	1835	926.568602962173	2.807633742114
1	1839	926.719737267274	2.22001081465
1	1845	929.435329240836	2.866726278663
1	1853	934.703773013236	7.984035745962
1	1857	937.398699368515	7.963370127679
1	1865	951.792919452254	17.089146439018
1	1871	955.270328467566	17.871629099051
1	1877	955.984541440766	4.191621988512
1	1883	956.911494665696	1.64116619813
1	1887	957.014891158419	1.030349717653
1	1891	957.299823273036	0.38832860734
1	1901	965.25641308822	8.241521929801
1	1905	968.410186251002	11.110362977966
1	1909	969.487181215579	4.230768127359
1	1913	969.742301151261	1.332114900259
1	1917	970.02675690868	0.539575693101
1	1925	975.219030266368	5.476729115107
1	1931	976.953361769998	6.926604861318
1	1937	978.071855665948	2.85282539958
1	1949	992.233310427818	15.27994865782
1	1953	993.64094778116	15.569092115212
1	1959	995.703166910365	3.469856482547
1	1965	996.06113520774	2.42018742658
1	1969	996.162675613369	0.459508703004
1	1977	999.121078226661	3.059943018921
2	252	100.205786080757	16
2	256	100.668866644527	17
2	258	101.121119749286	16
2	262	101.514175363251	17
2	264	104.580403128424	16
2	268	106.198232279934	17
2	270	106.483539569642	16
2	274	108.925303736191	17
2	276	109.12186704789	16
2	280	111.968919765445	15
2	284	113.548052694425	16
2	286	117.165647030823	15
2	290	117.633910391003	16
2	292	117.702612542674	15
2	296	120.741721621767	14
2	300	121.169616904414	15
2	302	126.423213814813	14
2	306	126.429289787202	15
2	308	127.449394905517	14
2	312	127.605483474379	13
2	316	128.196358200293	14
2	318	133.88093855882	15
2	320	134.201461154325	16
2	322	138.105283452632	17
2	324	151.297376870779	16
2	328	152.631766185534	15
2	332	152.939607950623	16
2	334	154.657937170057	15
2	338	154.904185668033	16
2	340	156.378465339928	15
2	344	157.213866803173	16
2	346	160.824918125025	15
2	350	161.523479258003	16
2	352	163.293941311725	17
2	354	163.803600592074	16
2	358	165.099470459207	17
2	360	165.726315924835	16
2	364	168.078814056024	17
2	366	168.092561828956	16
2	370	169.786672574244	15
2	374	170.150114533111	16
2	376	171.652975048575	15
2	380	171.748805901882	16
2	382	174.44309721562	17
2	384	175.364007877847	16
2	388	175.479228644125	15
2	392	176.501395009725	16
2	394	177.673719212205	15
2	398	178.001272974441	14
2	402	178.90062410058	15
2	404	179.423634875302	16
2	406	180.808242400432	15
2	410	183.293137356052	14
2	414	183.533890543827	15
2	416	184.524731556357	16
2	418	185.030945738383	15
2	422	185.998575773473	16
2	424	186.021370470758	15
2	428	186.488258338066	16
2	430	187.30352684277	15
2	434	191.876573185402	16
2	436	193.890755771918	17
2	438	201.490353461697	16
2	442	202.497025902737	17
2	444	205.606102807881	16
2	448	208.838655622119	17
2	450	211.847406454105	16
2	454	219.892432153353	15
2	458	222.32137954096	14
2	462	222.586971548656	15
2	464	222.914773500953	16
2	466	224.674220222639	17
2	468	228.924966588833	16
2	472	229.530681509079	15
2	476	230.666018965778	14
2	480	230.896888071017	13
2	484	231.17285915203	14
2	486	232.018089489192	15
2	488	232.075679640319	14
2	492	233.339701414563	15
2	494	233.531758702197	16
2	496	240.063171971387	17
2	498	240.273976807416	16
2	502	242.813638737568	17
2	504	248.889864208051	16
2	508	249.151591237176	15
2	512	249.432677426442	16
2	514	249.802365715297	15
2	518	250.005807079438	16
2	520	250.793932168746	15
2	524	251.3999684019	14
2	528	251.678466285124	15
2	530	252.147478953307	16
2	532	258.115138496295	17