version 3
run General-8-20221103-10:28:21-6760
attr configname General
attr datetime 20221103-10:28:21
attr datetimef 20221103-102821
attr experiment General
attr inifile block.ini
attr iterationvars "$0=2, $1=20"
attr iterationvarsd 2/20
attr iterationvarsf 2,20-
attr measurement "$0=2, $1=20"
attr network Block
attr processid 6760
attr repetition 3
attr replication #3
attr resultdir results
attr runnumber 8
attr seedset 8
config network Block
config repeat 5
config sim-time-limit 1000s
config warmup-period 100s
config **.alloca.resourceModuleName "\"risorse\""
config **.dealloca.resourceModuleName "\"risorse\""
config **.is.delay exponential(3s)
config **.servente.serviceTime exponential(2s)
config **.dealloca.resourceAmount 2
config **.alloca.resourceAmount 2
config **.risorse.amount 6
config **.sorgente.numJobs (20)
config **.result-recording-modes all

vector 0 Block.servente queueLength:vector ETV
attr interpolationmode sample-hold
attr recordingmode vector
attr title "queue length"
vector 1 Block.servente queueingTime:vector ETV
attr interpolationmode none
attr recordingmode vector
attr title "queueing time at dequeue"
attr unit s
vector 2 Block.alloca queueLength:vector ETV
attr interpolationmode sample-hold
attr recordingmode vector
attr title "queue length"
vector 3 Block.alloca queueingTime:vector ETV
attr interpolationmode none
attr recordingmode vector
attr title "queueing time at dequeue"
attr unit s
vector 4 Block.risorse amount:vector ETV
attr interpolationmode sample-hold
attr recordingmode vector
attr title "available resource"
vector 5 Block.is delayedJobs:vector ETV
attr interpolationmode sample-hold
attr recordingmode vector
attr title "number of delayed jobs"
0	437	103.525443838747	1
0	439	103.525443838747	2
0	443	106.272055191085	1
0	445	106.272055191085	2
0	447	107.640719685445	1
0	449	107.640719685445	2
0	451	107.890754912257	1
0	453	107.890754912257	2
0	457	110.943188574141	1
0	459	110.943188574141	2
0	461	111.009404163209	1
0	463	111.009404163209	2
0	465	111.235334155284	1
0	467	111.235334155284	2
0	473	111.780008238803	1
0	475	111.780008238803	2
0	477	112.552450031196	1
0	479	112.552450031196	2
0	491	117.866153300443	1
0	493	117.866153300443	2
0	497	119.1405864325	1
0	499	119.1405864325	2
0	501	120.403208797184	1
0	503	120.403208797184	2
0	509	123.774352815937	1
0	511	123.774352815937	2
0	513	124.327441913051	1
0	515	124.327441913051	2
0	517	126.287887272524	1
0	519	126.287887272524	2
0	523	127.788095891312	1
0	525	127.788095891312	2
0	531	129.641584876201	1
0	533	129.641584876201	2
0	535	130.258244483054	1
0	537	130.258244483054	2
0	541	131.391178541029	1
0	543	131.391178541029	2
0	545	132.805677247439	1
0	547	132.805677247439	2
0	551	133.825184313408	1
0	553	133.825184313408	2
0	557	134.503084780742	1
0	559	134.503084780742	2
0	569	139.587647901749	1
0	571	139.587647901749	2
0	573	140.649179390738	1
0	575	140.649179390738	2
0	581	141.121071240359	1
0	583	141.121071240359	2
0	587	146.311764223582	1
0	589	146.311764223582	2
0	593	147.390989863794	1
0	595	147.390989863794	2
0	597	147.69196806385	1
0	599	147.69196806385	2
0	601	147.90208869199	1
0	603	147.90208869199	2
0	609	152.946040197935	1
0	611	152.946040197935	2
0	613	153.653208130319	1
0	615	153.653208130319	2
0	619	159.649387675805	1
0	621	159.649387675805	2
0	623	160.472457567579	1
0	625	160.472457567579	2
0	627	161.448959040483	1
0	629	161.448959040483	2
0	641	166.307852180804	1
0	643	166.307852180804	2
0	645	168.574059279199	1
0	647	168.574059279199	2
0	651	171.580504578656	1
0	653	171.580504578656	2
0	655	173.957306158665	1
0	657	173.957306158665	2
0	663	179.36683027787	1
0	665	179.36683027787	2
0	669	180.342898638626	1
0	671	180.342898638626	2
0	673	180.698219668714	1
0	675	180.698219668714	2
0	679	181.298470674696	1
0	681	181.298470674696	2
0	685	181.625809091035	1
0	687	181.625809091035	2
0	691	184.166925871159	1
0	693	184.166925871159	2
0	697	185.772916536888	1
0	699	185.772916536888	2
0	701	186.934965230206	1
0	703	186.934965230206	2
0	711	190.240663227634	1
0	713	190.240663227634	2
0	717	191.886457796703	1
0	719	191.886457796703	2
0	721	193.97527234655	1
0	723	193.97527234655	2
0	729	194.984868085584	1
0	731	194.984868085584	2
0	735	197.016338277322	1
0	737	197.016338277322	2
0	741	197.281882791317	1
0	743	197.281882791317	2
0	745	198.413384795924	1
0	747	198.413384795924	2
0	749	199.780655214601	1
0	751	199.780655214601	2
0	761	200.862478427973	1
0	763	200.862478427973	2
0	767	201.731491536516	1
0	769	201.731491536516	2
0	771	204.008458865945	1
0	773	204.008458865945	2
0	777	204.797799723632	1
0	779	204.797799723632	2
0	783	205.235461964477	1
0	785	205.235461964477	2
0	787	206.472437504636	1
0	789	206.472437504636	2
0	791	206.795807728137	1
0	793	206.795807728137	2
0	799	209.342421398041	1
0	801	209.342421398041	2
0	807	211.098662500008	1
0	809	211.098662500008	2
0	813	212.221419917848	1
0	815	212.221419917848	2
0	817	212.318022374507	1
0	819	212.318022374507	2
0	827	213.907517214497	1
0	829	213.907517214497	2
0	831	214.178079617266	1
0	833	214.178079617266	2
0	835	215.906873291322	1
0	837	215.906873291322	2
0	839	216.280509493164	1
0	841	216.280509493164	2
0	845	216.388262067871	1
0	847	216.388262067871	2
0	853	217.663652319508	1
0	855	217.663652319508	2
0	857	218.176552064062	1
0	859	218.176552064062	2
0	865	221.522139566644	1
0	867	221.522139566644	2
0	869	221.818940338876	1
0	871	221.818940338876	2
0	873	222.000469363864	1
0	875	222.000469363864	2
0	879	223.111331102925	1
0	881	223.111331102925	2
0	889	225.476982649305	1
0	891	225.476982649305	2
0	899	226.910766109023	1
0	901	226.910766109023	2
0	905	228.211927221923	1
0	907	228.211927221923	2
0	909	229.047155739726	1
0	911	229.047155739726	2
0	917	234.22052081303	1
0	919	234.22052081303	2
0	923	239.075843571008	1
0	925	239.075843571008	2
0	929	241.537178425537	1
0	931	241.537178425537	2
0	935	245.667127366978	1
0	937	245.667127366978	2
0	939	247.259350368276	1
0	941	247.259350368276	2
0	947	254.363804831789	1
0	949	254.363804831789	2
0	951	257.318440520165	1
0	953	257.318440520165	2
0	957	258.951960542238	1
0	959	258.951960542238	2
0	963	261.474693548827	1
0	965	261.474693548827	2
0	969	262.435277457977	1
0	971	262.435277457977	2
0	975	263.758826151694	1
0	977	263.758826151694	2
0	983	266.095385624036	1
0	985	266.095385624036	2
0	989	269.858570696031	1
0	991	269.858570696031	2
0	995	270.721794392204	1
0	997	270.721794392204	2
0	1001	274.030350615724	1
0	1003	274.030350615724	2
0	1005	274.760373297674	1
0	1007	274.760373297674	2
0	1011	277.451212096556	1
0	1013	277.451212096556	2
0	1017	278.501552632387	1
0	1019	278.501552632387	2
0	1023	285.537203600341	1
0	1025	285.537203600341	2
0	1027	287.949087682871	1
0	1029	287.949087682871	2
0	1031	288.225912197276	1
0	1033	288.225912197276	2
0	1043	294.245936592003	1
0	1045	294.245936592003	2
0	1049	295.355746790357	1
0	1051	295.355746790357	2
0	1053	296.337696733948	1
0	1055	296.337696733948	2
0	1061	306.566624227301	1
0	1063	306.566624227301	2
0	1067	308.640628879379	1
0	1069	308.640628879379	2
0	1071	308.695433473943	1
0	1073	308.695433473943	2
0	1075	311.041047523053	1
0	1077	311.041047523053	2
0	1079	311.171727936024	1
0	1081	311.171727936024	2
0	1083	312.149236476624	1
0	1085	312.149236476624	2
0	1087	312.617896575804	1
0	1089	312.617896575804	2
0	1099	316.757067524916	1
0	1101	316.757067524916	2
0	1107	319.06259829356	1
0	1109	319.06259829356	2
0	1115	323.380894284315	1
0	1117	323.380894284315	2
0	1121	326.031576039163	1
0	1123	326.031576039163	2
0	1127	330.295106498983	1
0	1129	330.295106498983	2
0	1133	333.017608780566	1
0	1135	333.017608780566	2
0	1137	333.102532185339	1
0	1139	333.102532185339	2
0	1143	337.407850770787	1
0	1145	337.407850770787	2
0	1149	337.910185495134	1
0	1151	337.910185495134	2
0	1155	339.707890204123	1
0	1157	339.707890204123	2
0	1159	343.947732287807	1
0	1161	343.947732287807	2
0	1167	346.934340208264	1
0	1169	346.934340208264	2
0	1171	347.153111866042	1
0	1173	347.153111866042	2
0	1175	347.222222569713	1
0	1177	347.222222569713	2
0	1183	348.566467621172	1
0	1185	348.566467621172	2
0	1193	350.599089127119	1
0	1195	350.599089127119	2
0	1199	353.197481114816	1
0	1201	353.197481114816	2
0	1205	354.921845609165	1
0	1207	354.921845609165	2
0	1211	360.474550194464	1
0	1213	360.474550194464	2
0	1215	361.226742822306	1
0	1217	361.226742822306	2
0	1221	361.374560624365	1
0	1223	361.374560624365	2
0	1227	361.63462738152	1
0	1229	361.63462738152	2
0	1235	370.460217270141	1
0	1237	370.460217270141	2
0	1241	371.59499174556	1
0	1243	371.59499174556	2
0	1247	374.041403830659	1
0	1249	374.041403830659	2
0	1253	375.499024871429	1
0	1255	375.499024871429	2
0	1257	376.462480345872	1
0	1259	376.462480345872	2
0	1263	377.593424537597	1
0	1265	377.593424537597	2
0	1267	378.403857655349	1
0	1269	378.403857655349	2
0	1275	379.985663998593	1
0	1277	379.985663998593	2
0	1283	387.424453274275	1
0	1285	387.424453274275	2
0	1287	391.048466386316	1
0	1289	391.048466386316	2
0	1293	393.708591770104	1
0	1295	393.708591770104	2
0	1297	394.152304497758	1
0	1299	394.152304497758	2
0	1301	394.454617734581	1
0	1303	394.454617734581	2
0	1307	395.193146145856	1
0	1309	395.193146145856	2
0	1313	396.974518252884	1
0	1315	396.974518252884	2
0	1317	398.156110990613	1
0	1319	398.156110990613	2
0	1325	399.962134236396	1
0	1327	399.962134236396	2
0	1329	401.161334131645	1
0	1331	401.161334131645	2
0	1333	401.556755494635	1
0	1335	401.556755494635	2
0	1339	403.542844871029	1
0	1341	403.542844871029	2
0	1355	411.914033396663	1
0	1357	411.914033396663	2
0	1359	413.973027045585	1
0	1361	413.973027045585	2
0	1365	415.063311549506	1
0	1367	415.063311549506	2
0	1371	417.691635856644	1
0	1373	417.691635856644	2
0	1377	418.529159973306	1
0	1379	418.529159973306	2
0	1381	421.124073395852	1
0	1383	421.124073395852	2
0	1387	421.762764593923	1
0	1389	421.762764593923	2
0	1391	421.772234434387	1
0	1393	421.772234434387	2
0	1401	424.641589599223	1
0	1403	424.641589599223	2
0	1405	425.668866206245	1
0	1407	425.668866206245	2
0	1413	427.48554836768	1
0	1415	427.48554836768	2
0	1421	428.157639193203	1
0	1423	428.157639193203	2
0	1427	432.13448387246	1
0	1429	432.13448387246	2
0	1431	432.408895825754	1
0	1433	432.408895825754	2
0	1435	432.445789016318	1
0	1437	432.445789016318	2
0	1445	437.563037556789	1
0	1447	437.563037556789	2
0	1449	438.609689312167	1
0	1451	438.609689312167	2
0	1457	442.02091620815	1
0	1459	442.02091620815	2
0	1463	449.025969237763	1
0	1465	449.025969237763	2
0	1469	453.309258281705	1
0	1471	453.309258281705	2
0	1473	454.862110886258	1
0	1475	454.862110886258	2
0	1481	459.278051197201	1
0	1483	459.278051197201	2
0	1487	461.77091906011	1
0	1489	461.77091906011	2
0	1491	462.407360890063	1
0	1493	462.407360890063	2
0	1497	464.574101101091	1
0	1499	464.574101101091	2
0	1503	466.094623064358	1
0	1505	466.094623064358	2
0	1511	473.933062856087	1
0	1513	473.933062856087	2
0	1515	476.13844305222	1
0	1517	476.13844305222	2
0	1523	478.370745583504	1
0	1525	478.370745583504	2
0	1529	480.017726455607	1
0	1531	480.017726455607	2
0	1533	480.454502102278	1
0	1535	480.454502102278	2
0	1537	480.825168822615	1
0	1539	480.825168822615	2
0	1547	488.18231334649	1
0	1549	488.18231334649	2
0	1553	488.65001832433	1
0	1555	488.65001832433	2
0	1557	490.157397419986	1
0	1559	490.157397419986	2
0	1561	490.241186843302	1
0	1563	490.241186843302	2
0	1569	495.580724120901	1
0	1571	495.580724120901	2
0	1575	496.854892874251	1
0	1577	496.854892874251	2
0	1579	497.107406473968	1
0	1581	497.107406473968	2
0	1589	498.857468692532	1
0	1591	498.857468692532	2
0	1595	502.880012693864	1
0	1597	502.880012693864	2
0	1601	503.700776492564	1
0	1603	503.700776492564	2
0	1605	503.90838125289	1
0	1607	503.90838125289	2
0	1609	504.701753901229	1
0	1611	504.701753901229	2
0	1615	510.107444894778	1
0	1617	510.107444894778	2
0	1619	511.034625685497	1
0	1621	511.034625685497	2
0	1623	511.852688933267	1
0	1625	511.852688933267	2
0	1627	512.604951489234	1
0	1629	512.604951489234	2
0	1643	523.341134974087	1
0	1645	523.341134974087	2
0	1647	523.650954616753	1
0	1649	523.650954616753	2
0	1655	524.747200832167	1
0	1657	524.747200832167	2
0	1659	526.129128140803	1
0	1661	526.129128140803	2
0	1663	526.641022017233	1
0	1665	526.641022017233	2
0	1669	527.963918589212	1
0	1671	527.963918589212	2
0	1677	530.096235665329	1
0	1679	530.096235665329	2
0	1681	530.247298689849	1
0	1683	530.247298689849	2
0	1689	532.515050353974	1
0	1691	532.515050353974	2
0	1695	533.964188224928	1
0	1697	533.964188224928	2
0	1699	535.949434177048	1
0	1701	535.949434177048	2
0	1705	538.476570128765	1
0	1707	538.476570128765	2
0	1711	539.768077403267	1
0	1713	539.768077403267	2
0	1721	541.96250567755	1
0	1723	541.96250567755	2
0	1727	542.940197625234	1
0	1729	542.940197625234	2
0	1731	544.807730463596	1
0	1733	544.807730463596	2
0	1737	545.248242947566	1
0	1739	545.248242947566	2
0	1743	548.668189221706	1
0	1745	548.668189221706	2
0	1749	549.818865510448	1
0	1751	549.818865510448	2
0	1753	550.355545428741	1
0	1755	550.355545428741	2
0	1763	557.483900487632	1
0	1765	557.483900487632	2
0	1767	561.837853947995	1
0	1769	561.837853947995	2
0	1773	569.014275755737	1
0	1775	569.014275755737	2
0	1777	569.967483391275	1
0	1779	569.967483391275	2
0	1787	573.669716763489	1
0	1789	573.669716763489	2
0	1793	580.339455097737	1
0	1795	580.339455097737	2
0	1799	580.804638806039	1
0	1801	580.804638806039	2
0	1803	581.125136103694	1
0	1805	581.125136103694	2
0	1811	588.897270707154	1
0	1813	588.897270707154	2
0	1817	589.954657319737	1
0	1819	589.954657319737	2
0	1823	593.359660186412	1
0	1825	593.359660186412	2
0	1829	594.762687007535	1
0	1831	594.762687007535	2
0	1835	598.792425272069	1
0	1837	598.792425272069	2
0	1839	601.796055274031	1
0	1841	601.796055274031	2
0	1843	602.581154646705	1
0	1845	602.581154646705	2
0	1847	602.658138933288	1
0	1849	602.658138933288	2
0	1855	605.185722492175	1
0	1857	605.185722492175	2
0	1859	605.982532360339	1
0	1861	605.982532360339	2
0	1865	606.237922598768	1
0	1867	606.237922598768	2
0	1869	606.479952959685	1
0	1871	606.479952959685	2
0	1875	607.699672270901	1
0	1877	607.699672270901	2
0	1879	608.002801758075	1
0	1881	608.002801758075	2
0	1895	618.578757804998	1
0	1897	618.578757804998	2
0	1899	622.604101159505	1
0	1901	622.604101159505	2
0	1907	625.323564159142	1
0	1909	625.323564159142	2
0	1913	627.190591102786	1
0	1915	627.190591102786	2
0	1919	631.720573310131	1
0	1921	631.720573310131	2
0	1923	632.457094426236	1
0	1925	632.457094426236	2
0	1929	634.752117892106	1
0	1931	634.752117892106	2
0	1933	635.79406413389	1
0	1935	635.79406413389	2
0	1937	636.582283419011	1
0	1939	636.582283419011	2
0	1949	641.9514183125	1
0	1951	641.9514183125	2
0	1953	643.452827068118	1
0	1955	643.452827068118	2
0	1959	644.510726705491	1
0	1961	644.510726705491	2
0	1965	645.804849671875	1
0	1967	645.804849671875	2
0	1971	646.546346542443	1
0	1973	646.546346542443	2
0	1979	650.736492389108	1
0	1981	650.736492389108	2
0	1983	651.605332895562	1
0	1985	651.605332895562	2
0	1987	652.805451153719	1
0	1989	652.805451153719	2
0	1993	653.543551202039	1
0	1995	653.543551202039	2
0	1997	655.305571243753	1
0	1999	655.305571243753	2
0	2003	656.078709652377	1
0	2005	656.078709652377	2
0	2009	659.060659344034	1
0	2011	659.060659344034	2
0	2019	662.035708155545	1
0	2021	662.035708155545	2
0	2025	663.686372156899	1
0	2027	663.686372156899	2
0	2029	663.956441363097	1
0	2031	663.956441363097	2
0	2037	667.801140253834	1
0	2039	667.801140253834	2
0	2043	670.726527450518	1
0	2045	670.726527450518	2
0	2049	671.895220705295	1
0	2051	671.895220705295	2
0	2057	676.249989228066	1
0	2059	676.249989228066	2
0	2063	681.082294937382	1
0	2065	681.082294937382	2
0	2067	681.310458763086	1
0	2069	681.310458763086	2
0	2071	681.545851515444	1
0	2073	681.545851515444	2
0	2079	682.610137020763	1
0	2081	682.610137020763	2
0	2085	685.283784307734	1
0	2087	685.283784307734	2
0	2093	691.339163752518	1
0	2095	691.339163752518	2
0	2097	693.466063934279	1
0	2099	693.466063934279	2
0	2105	697.793954297087	1
0	2107	697.793954297087	2
0	2109	699.331999466185	1
0	2111	699.331999466185	2
0	2113	699.486877186643	1
0	2115	699.486877186643	2
0	2123	706.32835028547	1
0	2125	706.32835028547	2
0	2127	707.274124660181	1
0	2129	707.274124660181	2
0	2131	707.449707428594	1
0	2133	707.449707428594	2
0	2141	711.594553694841	1
0	2143	711.594553694841	2
0	2145	712.909026979435	1
0	2147	712.909026979435	2
0	2153	717.169148070493	1
0	2155	717.169148070493	2
0	2159	720.934501929533	1
0	2161	720.934501929533	2
0	2163	721.742710483882	1
0	2165	721.742710483882	2
0	2167	722.122403372853	1
0	2169	722.122403372853	2
0	2171	725.478288399511	1
0	2173	725.478288399511	2
0	2177	726.141638769142	1
0	2179	726.141638769142	2
0	2181	726.161563799732	1
0	2183	726.161563799732	2
0	2189	728.029220333982	1
0	2191	728.029220333982	2
0	2193	728.197818654228	1
0	2195	728.197818654228	2
0	2203	732.397167498122	1
0	2205	732.397167498122	2
0	2209	735.576351312067	1
0	2211	735.576351312067	2
0	2219	737.945806250197	1
0	2221	737.945806250197	2
0	2223	739.586708479879	1
0	2225	739.586708479879	2
0	2231	743.595627607775	1
0	2233	743.595627607775	2
0	2237	744.588136416879	1
0	2239	744.588136416879	2
0	2243	747.54345037683	1
0	2245	747.54345037683	2
0	2247	747.669911479908	1
0	2249	747.669911479908	2
0	2255	755.660270516639	1
0	2257	755.660270516639	2
0	2259	757.029156814486	1
0	2261	757.029156814486	2
0	2265	761.071134762065	1
0	2267	761.071134762065	2
0	2269	761.56713436613	1
0	2271	761.56713436613	2
0	2273	761.587045529746	1
0	2275	761.587045529746	2
0	2281	763.9068743216	1
0	2283	763.9068743216	2
0	2287	764.32606003657	1
0	2289	764.32606003657	2
0	2291	765.1822778393	1
0	2293	765.1822778393	2
0	2303	770.163256321288	1
0	2305	770.163256321288	2
0	2307	771.255109883056	1
0	2309	771.255109883056	2
0	2315	777.202617515817	1
0	2317	777.202617515817	2
0	2319	778.756783991024	1
0	2321	778.756783991024	2
0	2323	778.787497268326	1
0	2325	778.787497268326	2
0	2329	779.729079800413	1
0	2331	779.729079800413	2
0	2337	784.447254747866	1
0	2339	784.447254747866	2
0	2341	784.482982246284	1
0	2343	784.482982246284	2
0	2349	785.450674832231	1
0	2351	785.450674832231	2
0	2353	786.293292354478	1
0	2355	786.293292354478	2
0	2357	787.523882052022	1
0	2359	787.523882052022	2
0	2363	788.275502065294	1
0	2365	788.275502065294	2
0	2375	790.359752282608	1
0	2377	790.359752282608	2
0	2381	793.176805524763	1
0	2383	793.176805524763	2
0	2387	794.306836672322	1
0	2389	794.306836672322	2
0	2393	798.076740682822	1
0	2395	798.076740682822	2
0	2399	806.16823723089	1
0	2401	806.16823723089	2
0	2405	810.10161156234	1
0	2407	810.10161156234	2
0	2411	814.878720122906	1
0	2413	814.878720122906	2
0	2415	815.453233105258	1
0	2417	815.453233105258	2
0	2423	816.529735329773	1
0	2425	816.529735329773	2
0	2427	817.297613375662	1
0	2429	817.297613375662	2
0	2431	818.253494825179	1
0	2433	818.253494825179	2
0	2437	820.256658503313	1
0	2439	820.256658503313	2
0	2445	824.223255974765	1
0	2447	824.223255974765	2
0	2451	825.270734863235	1
0	2453	825.270734863235	2
0	2459	828.611297045575	1
0	2461	828.611297045575	2
0	2463	830.416069917485	1
0	2465	830.416069917485	2
0	2469	832.041036483854	1
0	2471	832.041036483854	2
0	2473	832.045887805646	1
0	2475	832.045887805646	2
0	2479	834.241550020367	1
0	2481	834.241550020367	2
0	2483	836.347463985226	1
0	2485	836.347463985226	2
0	2493	839.668278482818	1
0	2495	839.668278482818	2
0	2497	840.761320546247	1
0	2499	840.761320546247	2
0	2505	841.080078596109	1
0	2507	841.080078596109	2
0	2509	842.439022937091	1
0	2511	842.439022937091	2
0	2515	842.62885419581	1
0	2517	842.62885419581	2
0	2523	844.305596168234	1
0	2525	844.305596168234	2
0	2527	845.979277148573	1
0	2529	845.979277148573	2
0	2533	847.856648373516	1
0	2535	847.856648373516	2
0	2541	852.069044179735	1
0	2543	852.069044179735	2
0	2547	854.656833117866	1
0	2549	854.656833117866	2
0	2553	857.176362190153	1
0	2555	857.176362190153	2
0	2557	858.874400881704	1
0	2559	858.874400881704	2
0	2561	859.126119343131	1
0	2563	859.126119343131	2
0	2567	862.032553458816	1
0	2569	862.032553458816	2
0	2577	865.230390804484	1
0	2579	865.230390804484	2
0	2585	872.774767665903	1
0	2587	872.774767665903	2
0	2591	873.389083777683	1
0	2593	873.389083777683	2
0	2595	873.843466594064	1
0	2597	873.843466594064	2
0	2599	873.995320525381	1
0	2601	873.995320525381	2
0	2603	874.175332835564	1
0	2605	874.175332835564	2
0	2607	874.969610695816	1
0	2609	874.969610695816	2
0	2619	879.66336265309	1
0	2621	879.66336265309	2
0	2623	880.048014221063	1
0	2625	880.048014221063	2
0	2629	880.266404845514	1
0	2631	880.266404845514	2
0	2639	882.480168563639	1
0	2641	882.480168563639	2
0	2645	883.696006106542	1
0	2647	883.696006106542	2
0	2649	883.748711833372	1
0	2651	883.748711833372	2
0	2655	884.369013461592	1
0	2657	884.369013461592	2
0	2661	886.785829149605	1
0	2663	886.785829149605	2
0	2665	888.407407495127	1
0	2667	888.407407495127	2
0	2675	892.488461183779	1
0	2677	892.488461183779	2
0	2679	893.366629236857	1
0	2681	893.366629236857	2
0	2687	894.479338555845	1
0	2689	894.479338555845	2
0	2691	895.783801331699	1
0	2693	895.783801331699	2
0	2695	896.416973046636	1
0	2697	896.416973046636	2
0	2701	897.00270374163	1
0	2703	897.00270374163	2
0	2707	901.481074077103	1
0	2709	901.481074077103	2
0	2713	903.36035341414	1
0	2715	903.36035341414	2
0	2719	903.930799983479	1
0	2721	903.930799983479	2
0	2725	905.180624444583	1
0	2727	905.180624444583	2
0	2733	906.843918420638	1
0	2735	906.843918420638	2
0	2741	916.04287792173	1
0	2743	916.04287792173	2
0	2745	916.431654718443	1
0	2747	916.431654718443	2
0	2751	918.378449422968	1
0	2753	918.378449422968	2
0	2755	918.677772637239	1
0	2757	918.677772637239	2
0	2761	921.597776366581	1
0	2763	921.597776366581	2
0	2765	921.74379197264	1
0	2767	921.74379197264	2
0	2777	925.746895082506	1
0	2779	925.746895082506	2
0	2783	928.167613837109	1
0	2785	928.167613837109	2
0	2789	930.25698214348	1
0	2791	930.25698214348	2
0	2795	933.563579103659	1
0	2797	933.563579103659	2
0	2799	934.262735315785	1
0	2801	934.262735315785	2
0	2807	936.015474043865	1
0	2809	936.015474043865	2
0	2813	937.713051781624	1
0	2815	937.713051781624	2
0	2817	941.422278347222	1
0	2819	941.422278347222	2
0	2823	942.892777952687	1
0	2825	942.892777952687	2
0	2827	942.976198841159	1
0	2829	942.976198841159	2
0	2837	947.796056785984	1
0	2839	947.796056785984	2
0	2841	948.57770114346	1
0	2843	948.57770114346	2
0	2847	951.006614080084	1
0	2849	951.006614080084	2
0	2853	954.490034869344	1
0	2855	954.490034869344	2
0	2859	957.32966401756	1
0	2861	957.32966401756	2
0	2865	959.635183615226	1
0	2867	959.635183615226	2
0	2873	960.150972813519	1
0	2875	960.150972813519	2
0	2877	961.151231223069	1
0	2879	961.151231223069	2
0	2885	963.954155672629	1
0	2887	963.954155672629	2
0	2891	974.040633896791	1
0	2893	974.040633896791	2
0	2897	978.070771634261	1
0	2899	978.070771634261	2
0	2901	979.071907769431	1
0	2903	979.071907769431	2
0	2909	981.573924391965	1
0	2911	981.573924391965	2
0	2913	981.91105813904	1
0	2915	981.91105813904	2
0	2917	982.801216760678	1
0	2919	982.801216760678	2
0	2925	984.301001217904	1
0	2927	984.301001217904	2
0	2933	990.110740553466	1
0	2935	990.110740553466	2
0	2937	992.085426890105	1
0	2939	992.085426890105	2
0	2943	994.699461220945	1
0	2945	994.699461220945	2
0	2951	998.448951702438	1
0	2953	998.448951702438	2
0	2955	998.453308541906	1
0	2957	998.453308541906	2
0	2959	998.698979971531	1
0	2961	998.698979971531	2
0	2963	998.846722006243	1
0	2965	998.846722006243	2
1	437	103.525443838747	10.410055656381
1	443	106.272055191085	10.418509473829
1	447	107.640719685445	4.115275846698
1	451	107.890754912257	1.618699721172
1	457	110.943188574141	3.302468888696
1	461	111.009404163209	3.118649250952
1	465	111.235334155284	0.292145581143
1	473	111.780008238803	0.770604075594
1	477	112.552450031196	1.317115875912
1	491	117.866153300443	6.08614506164
1	497	119.1405864325	6.588136401304
1	501	120.403208797184	2.537055496741
1	509	123.774352815937	4.633766383437
1	513	124.327441913051	3.924233115867
1	517	126.287887272524	2.513534456587
1	523	127.788095891312	3.460653978261
1	531	129.641584876201	3.353697603677
1	535	130.258244483054	2.470148591742
1	541	131.391178541029	1.749593664828
1	545	132.805677247439	2.547432764385
1	551	133.825184313408	2.434005772379
1	557	134.503084780742	1.697407533303
1	569	139.587647901749	5.762463588341
1	573	140.649179390738	6.146094609996
1	581	141.121071240359	1.53342333861
1	587	146.311764223582	5.662584832844
1	593	147.390989863794	6.269918623435
1	597	147.69196806385	1.380203840268
1	601	147.90208869199	0.511098828196
1	609	152.946040197935	5.254072134085
1	613	153.653208130319	5.751119438329
1	619	159.649387675805	6.70334747787
1	623	160.472457567579	6.81924943726
1	627	161.448959040483	1.799571364678
1	641	166.307852180804	5.835394613225
1	645	168.574059279199	7.125100238716
1	651	171.580504578656	5.272652397852
1	655	173.957306158665	5.383246879466
1	663	179.36683027787	7.786325699214
1	669	180.342898638626	6.385592479961
1	673	180.698219668714	1.331389390844
1	679	181.298470674696	0.95557203607
1	685	181.625809091035	0.927589422321
1	691	184.166925871159	2.868455196463
1	697	185.772916536888	4.147107445853
1	701	186.934965230206	2.768039359047
1	711	190.240663227634	4.467746690746
1	717	191.886457796703	4.951492566497
1	721	193.97527234655	3.734609118916
1	729	194.984868085584	3.098410288881
1	735	197.016338277322	3.041065930772
1	741	197.281882791317	2.297014705733
1	745	198.413384795924	1.397046518602
1	749	199.780655214601	2.498772423284
1	761	200.862478427973	2.449093632049
1	767	201.731491536516	1.950836321915
1	771	204.008458865945	3.145980437972
1	777	204.797799723632	3.066308187116
1	783	205.235461964477	1.227003098532
1	787	206.472437504636	1.674637781004
1	791	206.795807728137	1.56034576366
1	799	209.342421398041	2.869983893405
1	807	211.098662500008	4.302854771871
1	813	212.221419917848	2.878998519807
1	817	212.318022374507	1.219359874499
1	827	213.907517214497	1.686097296649
1	831	214.178079617266	1.860057242759
1	835	215.906873291322	1.999356076825
1	839	216.280509493164	2.102429875898
1	845	216.388262067871	0.481388776549
1	853	217.663652319508	1.383142826344
1	857	218.176552064062	1.788289996191
1	865	221.522139566644	3.858487247136
1	869	221.818940338876	3.642388274814
1	873	222.000469363864	0.47832979722
1	879	223.111331102925	1.292390764049
1	889	225.476982649305	3.476513285441
1	899	226.910766109023	3.799435006098
1	905	228.211927221923	2.734944572618
1	909	229.047155739726	2.136389630703
1	917	234.22052081303	6.008593591107
1	923	239.075843571008	10.028687831282
1	929	241.537178425537	7.316657612507
1	935	245.667127366978	6.59128379597
1	939	247.259350368276	5.722171942739
1	947	254.363804831789	8.696677464811
1	951	257.318440520165	10.059090151889
1	957	258.951960542238	4.588155710449
1	963	261.474693548827	4.156253028662
1	969	262.435277457977	3.483316915739
1	975	263.758826151694	2.284132602867
1	983	266.095385624036	3.660108166059
1	989	269.858570696031	6.099744544337
1	995	270.721794392204	4.626408768168
1	1001	274.030350615724	4.171779919693
1	1005	274.760373297674	4.03857890547
1	1011	277.451212096556	3.420861480832
1	1017	278.501552632387	3.741179334713
1	1023	285.537203600341	8.085991503785
1	1027	287.949087682871	9.447535050484
1	1031	288.225912197276	2.688708596935
1	1043	294.245936592003	6.296848909132
1	1049	295.355746790357	7.129834593081
1	1053	296.337696733948	2.091760141945
1	1061	306.566624227301	11.210877436944
1	1067	308.640628879379	12.302932145431
1	1071	308.695433473943	2.128809246642
1	1075	311.041047523053	2.400418643674
1	1079	311.171727936024	2.476294462081
1	1083	312.149236476624	1.108188953571
1	1087	312.617896575804	1.44616863978
1	1099	316.757067524916	4.607831048292
1	1107	319.06259829356	6.444701717756
1	1115	323.380894284315	6.623826759399
1	1121	326.031576039163	6.968977745603
1	1127	330.295106498983	6.914212214668
1	1133	333.017608780566	6.986032741403
1	1137	333.102532185339	2.807425686356
1	1143	337.407850770787	4.390241990221
1	1149	337.910185495134	4.807653309795
1	1155	339.707890204123	2.300039433336
1	1159	343.947732287807	6.037546792673
1	1167	346.934340208264	7.226450004141
1	1171	347.153111866042	3.205379578235
1	1175	347.222222569713	0.287882361449
1	1183	348.566467621172	1.41335575513
1	1193	350.599089127119	3.376866557406
1	1199	353.197481114816	4.631013493644
1	1205	354.921845609165	4.322756482046
1	1211	360.474550194464	7.277069079648
1	1215	361.226742822306	6.304897213141
1	1221	361.374560624365	0.900010429901
1	1227	361.63462738152	0.407884559214
1	1235	370.460217270141	9.085656645776
1	1241	371.59499174556	9.96036436404
1	1247	374.041403830659	3.581186560518
1	1253	375.499024871429	3.904033125869
1	1257	376.462480345872	2.421076515213
1	1263	377.593424537597	2.094399666168
1	1267	378.403857655349	1.941377309477
1	1275	379.985663998593	2.392239460996
1	1283	387.424453274275	9.020595618926
1	1287	391.048466386316	11.062802387723
1	1293	393.708591770104	6.284138495829
1	1297	394.152304497758	3.103838111442
1	1301	394.454617734581	0.746025964477
1	1307	395.193146145856	1.040841648098
1	1313	396.974518252884	2.519900518303
1	1317	398.156110990613	2.962964844757
1	1325	399.962134236396	2.987615983512
1	1329	401.161334131645	3.005223141032
1	1333	401.556755494635	1.594621258239
1	1339	403.542844871029	2.381510739384
1	1355	411.914033396663	10.357277902028
1	1359	413.973027045585	10.430182174556
1	1365	415.063311549506	3.149278152843
1	1371	417.691635856644	3.718608811059
1	1377	418.529159973306	3.4658484238
1	1381	421.124073395852	3.432437539208
1	1387	421.762764593923	3.233604620617
1	1391	421.772234434387	0.648161038535
1	1401	424.641589599223	2.8788250053
1	1405	425.668866206245	3.896631771858
1	1413	427.48554836768	2.843958768457
1	1421	428.157639193203	2.488772986958
1	1427	432.13448387246	4.64893550478
1	1431	432.408895825754	4.251256632551
1	1435	432.445789016318	0.311305143858
1	1445	437.563037556789	5.154141731035
1	1449	438.609689312167	6.163900295849
1	1457	442.02091620815	4.457878651361