version 3
run General-12-20221103-10:28:22-6760
attr configname General
attr datetime 20221103-10:28:22
attr datetimef 20221103-102822
attr experiment General
attr inifile block.ini
attr iterationvars "$0=2, $1=30"
attr iterationvarsd 2/30
attr iterationvarsf 2,30-
attr measurement "$0=2, $1=30"
attr network Block
attr processid 6760
attr repetition 2
attr replication #2
attr resultdir results
attr runnumber 12
attr seedset 12
config network Block
config repeat 5
config sim-time-limit 1000s
config warmup-period 100s
config **.alloca.resourceModuleName "\"risorse\""
config **.dealloca.resourceModuleName "\"risorse\""
config **.is.delay exponential(3s)
config **.servente.serviceTime exponential(2s)
config **.dealloca.resourceAmount 2
config **.alloca.resourceAmount 2
config **.risorse.amount 6
config **.sorgente.numJobs (30)
config **.result-recording-modes all

vector 0 Block.is delayedJobs:vector ETV
attr interpolationmode sample-hold
attr recordingmode vector
attr title "number of delayed jobs"
vector 1 Block.alloca queueLength:vector ETV
attr interpolationmode sample-hold
attr recordingmode vector
attr title "queue length"
vector 2 Block.servente queueLength:vector ETV
attr interpolationmode sample-hold
attr recordingmode vector
attr title "queue length"
vector 3 Block.servente queueingTime:vector ETV
attr interpolationmode none
attr recordingmode vector
attr title "queueing time at dequeue"
attr unit s
vector 4 Block.alloca queueingTime:vector ETV
attr interpolationmode none
attr recordingmode vector
attr title "queueing time at dequeue"
attr unit s
vector 5 Block.risorse amount:vector ETV
attr interpolationmode sample-hold
attr recordingmode vector
attr title "available resource"
0	387	101.236553828719	0
0	392	102.969892448733	1
0	396	104.673677311051	2
0	397	105.006071278139	1
0	402	106.697795134349	2
0	403	106.792715483932	1
0	408	108.436455684541	2
0	409	108.554365693394	1
0	414	109.189574475105	2
0	418	110.684095116472	3
0	419	111.982095354301	2
0	424	112.7595401382	3
0	428	113.290647356649	4
0	432	113.416814215921	5
0	433	113.458240488814	4
0	435	114.519809757479	3
0	437	115.190508607337	2
0	442	115.209023377831	3
0	443	115.252696685649	2
0	445	115.910501418384	1
0	450	116.814891734381	2
0	451	119.996594690775	1
0	456	120.582846584097	2
0	457	120.81177328194	1
0	462	123.449953294667	2
0	466	124.386734518062	3
0	467	124.481674261255	2
0	469	125.493414947732	1
0	474	125.954255586413	2
0	475	126.1626874334	1
0	477	129.237436106904	0
0	482	132.133951009304	1
0	486	132.411086709082	2
0	490	132.447365686639	3
0	494	134.101807270518	4
0	498	134.961362777866	5
0	499	135.177195972441	4
0	501	135.871560144434	3
0	506	137.027623411458	4
0	510	137.689599256553	5
0	511	138.286965516442	4
0	513	138.362720765148	3
0	518	138.797261610113	4
0	522	139.751561283616	5
0	523	139.965678440905	4
0	528	140.028688868876	5
0	529	140.587803230109	4
0	531	140.906239231231	3
0	533	140.970621719534	2
0	535	141.062321139942	1
0	540	141.877974052121	2
0	544	142.027431106422	3
0	548	142.925856095382	4
0	549	143.589848618204	3
0	554	144.138650609237	4
0	555	144.771771647521	3
0	560	148.798707716068	4
0	564	149.426688125785	5
0	565	149.436568268883	4
0	570	149.617990911077	5
0	571	149.977382970782	4
0	573	151.346904394607	3
0	575	151.71320868848	2
0	580	151.997302685602	3
0	581	152.301897200857	2
0	586	154.331999307093	3
0	587	154.349779969594	2
0	592	154.429489715116	3
0	596	155.196734807396	4
0	597	156.528852661553	3
0	599	156.656192436071	2
0	601	157.518927663119	1
0	603	159.569425593483	0
0	608	160.123415475197	1
0	609	162.840520663972	0
0	614	164.286243382587	1
0	618	165.777672323711	2
0	622	166.31649685606	3
0	626	166.599381227315	4
0	627	166.816685819242	3
0	629	167.117283577885	2
0	631	167.43963479268	1
0	636	168.183374240414	2
0	637	168.523689815029	1
0	642	172.32176464291	2
0	643	173.022721708635	1
0	648	174.411308535516	2
0	649	175.060835216461	1
0	654	175.538117127055	2
0	655	176.247592485197	1
0	660	176.591119977134	2
0	661	178.012869546981	1
0	663	179.593788156138	0
0	668	179.677284023495	1
0	672	180.287586822866	2
0	676	180.946025266967	3
0	680	180.992660759293	4
0	681	181.224030833956	3
0	683	181.62354560984	2
0	685	182.621750892648	1
0	690	183.224969321445	2
0	694	183.534026390338	3
0	698	183.705913195467	4
0	699	184.924555536872	3
0	701	185.68415183642	2
0	706	185.930111828192	3
0	707	186.356993707924	2
0	709	186.780695508191	1
0	714	188.611705853519	2
0	715	189.048292709474	1
0	720	190.449090644996	2
0	721	190.451750073712	1
0	726	190.558085372136	2
0	727	191.087596638217	1
0	732	191.229775415242	2
0	733	192.103535973417	1
0	738	193.986843506156	2
0	739	194.865161317231	1
0	744	195.058872496024	2
0	748	195.352992614347	3
0	749	195.406739913543	2
0	751	195.866974929812	1
0	756	196.740244004241	2
0	760	197.075737637909	3
0	761	197.145598379411	2
0	766	197.234511907985	3
0	767	198.262498100651	2
0	769	199.862387101307	1
0	774	202.345614842093	2
0	778	202.722563517598	3
0	779	203.359885695404	2
0	784	204.145466694467	3
0	785	204.355852764129	2
0	790	204.579658583653	3
0	791	205.300362750026	2
0	793	205.897234292569	1
0	795	205.954372128423	0
0	800	206.130810759723	1
0	801	207.353470987512	0
0	806	209.354373243813	1
0	810	209.765541483052	2
0	811	209.789648107727	1
0	813	209.940616872934	0
0	818	210.517443163025	1
0	819	210.548922962638	0
0	824	210.688536730024	1
0	828	212.587735031382	2
0	829	212.853043708379	1
0	834	213.395444807014	2
0	835	213.418410260458	1
0	837	214.533382147784	0
0	842	218.060368680464	1
0	846	219.712954250932	2
0	850	220.780138323231	3
0	854	221.348781685442	4
0	855	221.907402715735	3
0	860	225.1749185891	4
0	861	225.917451661291	3
0	863	226.317856175623	2
0	868	226.878870801259	3
0	869	227.709216829492	2
0	871	228.098240372292	1
0	873	228.444962631566	0
0	878	228.938536005895	1
0	879	230.964192410468	0
0	884	233.818692514145	1
0	888	235.652363077076	2
0	889	236.174107657069	1
0	891	237.212236609879	0
0	896	237.449556292377	1
0	900	239.505021421223	2
0	904	240.80656780495	3
0	905	241.518718214401	2
0	907	242.60124599451	1
0	909	244.037208387672	0
0	914	244.176978993597	1
0	915	244.661797116238	0
0	920	245.582688429499	1
0	924	245.58353307433	2
0	928	245.643128484536	3
0	929	246.705581592035	2
0	931	248.660574420584	1
0	933	249.700854633942	0
0	938	250.563731803537	1
0	942	250.918571506962	2
0	946	251.438185929641	3
0	947	251.977719220513	2
0	949	252.705691378692	1
0	954	256.069498434047	2
0	955	257.331744863238	1
0	960	262.755334533559	2
0	961	264.348338283581	1
0	966	265.036533703419	2
0	967	265.608396116753	1
0	972	266.145315711724	2
0	973	266.185645848948	1
0	975	267.926623409891	0
0	980	271.090423045916	1
0	981	273.653420251564	0
0	986	279.859896470155	1
0	990	281.745059866407	2
0	994	282.118711298942	3
0	998	282.72457231371	4
0	1002	282.930823317541	5
0	1003	283.095165239362	4
0	1005	283.780306173365	3
0	1007	284.370801605981	2
0	1012	284.415248793477	3
0	1016	284.659862018945	4
0	1017	285.760600701902	3
0	1019	286.043945740898	2
0	1021	287.659136226371	1
0	1026	289.210385971637	2
0	1027	289.511406234376	1
0	1032	289.718255045235	2
0	1033	290.72518990546	1
0	1038	291.151656466872	2
0	1039	291.202665111144	1
0	1044	291.882940753819	2
0	1048	292.067204825293	3
0	1052	292.277685278068	4
0	1056	292.295930602903	5
0	1057	292.317337022518	4
0	1062	294.393317095542	5
0	1063	294.483430859847	4
0	1065	294.932419943161	3
0	1067	296.358605782021	2
0	1069	302.506211144826	1
0	1071	302.538160591605	0
0	1076	303.521806407761	1
0	1080	303.545587141678	2
0	1084	304.508584483351	3
0	1088	305.081555219564	4
0	1089	305.238716684995	3
0	1094	305.525034857054	4
0	1095	309.999202488553	3
0	1097	310.934341053037	2
0	1102	311.012360420758	3
0	1106	311.118064966212	4
0	1107	311.192039851877	3
0	1109	311.348157101666	2
0	1111	312.472124922496	1
0	1116	314.010072160167	2
0	1120	314.357881803426	3
0	1124	315.070940430867	4
0	1128	315.895565016122	5
0	1129	316.669441523081	4
0	1131	316.750259967846	3
0	1136	316.766381130726	4
0	1140	317.104804611444	5
0	1141	318.007380046857	4
0	1143	318.192227393637	3
0	1145	318.877105731693	2
0	1147	321.258478971286	1
0	1152	324.396421550875	2
0	1153	327.452331176977	1
0	1155	327.648951761109	0
0	1160	329.059150812415	1
0	1164	330.637909413793	2
0	1168	331.026347095375	3
0	1172	331.938457438993	4
0	1173	332.68381774457	3
0	1175	332.847985939234	2
0	1177	334.209934395626	1
0	1179	334.319075328939	0
0	1184	336.752341182343	1
0	1188	337.451992017932	2
0	1192	338.352333779827	3
0	1196	340.102822756405	4
0	1197	341.686729663343	3
0	1202	342.93072773302	4
0	1206	343.369110062121	5
0	1207	343.827019993564	4
0	1212	344.472598627398	5
0	1213	344.552514731592	4
0	1215	344.778716997432	3
0	1217	345.507439814202	2
0	1222	345.699097455577	3
0	1226	345.876968077929	4
0	1230	347.237633593003	5
0	1231	347.551065312053	4
0	1236	348.291569618623	5
0	1237	348.752904139721	4
0	1242	349.134020187834	5
0	1243	349.815594493705	4
0	1248	349.915840528851	5
0	1249	350.505392495636	4
0	1251	350.925167949864	3
0	1253	351.258388322284	2
0	1258	352.124723758943	3
0	1259	352.981530438176	2
0	1261	354.914913721359	1
0	1266	355.850516341266	2
0	1267	356.447146933541	1
0	1272	357.577045809657	2
0	1276	358.055327707278	3
0	1277	358.556746843943	2
0	1279	359.134482044011	1
0	1284	359.90493843827	2
0	1285	360.206980167186	1
0	1290	362.893326898065	2
0	1291	363.636486524036	1
0	1296	365.892001174448	2
0	1297	368.765049671206	1
0	1302	368.869160368016	2
0	1306	369.29985324408	3
0	1307	369.371307944876	2
0	1309	369.793343770436	1
0	1311	370.817530212009	0
0	1316	371.847936733971	1
0	1317	374.006508906015	0
0	1322	375.743724982783	1
0	1326	376.549396202394	2
0	1327	377.009442523722	1
0	1332	377.874359653192	2
0	1333	378.915743767861	1
0	1338	380.428776171064	2
0	1342	381.118604708936	3
0	1343	381.350562062217	2
0	1345	381.497485143314	1
0	1347	381.846187188097	0
0	1352	382.364945958184	1
0	1356	385.325787502599	2
0	1357	387.022825746507	1
0	1362	388.075235674406	2
0	1363	388.20310012012	1
0	1365	389.812092765974	0
0	1370	391.257015311197	1
0	1374	391.945118065279	2
0	1375	392.356680044479	1
0	1377	394.368032260868	0
0	1382	394.778408448963	1
0	1383	397.158322230407	0
0	1388	401.406870112222	1
0	1389	402.440785039341	0
0	1394	403.675949113435	1
0	1398	405.886560454821	2
0	1399	406.193829548938	1
0	1404	406.273482365846	2
0	1408	406.665057686497	3
0	1409	407.920659241795	2
0	1414	408.475178886984	3
0	1418	408.859287341517	4
0	1419	408.900164426376	3
0	1421	408.9193798517	2
0	1426	410.433580103479	3
0	1427	410.694447634187	2
0	1429	410.698231053666	1
0	1434	412.894010640158	2
0	1435	413.107508322574	1
0	1440	415.712036229308	2
0	1441	416.937847216784	1
0	1443	417.06846993491	0
0	1448	417.311051512942	1
0	1449	418.528472263493	0
0	1454	419.269948408024	1
0	1455	419.607522301583	0
0	1460	420.106143968356	1
0	1461	420.724065434753	0
0	1466	421.678230394923	1
0	1470	422.133917196202	2
0	1471	422.492370845191	1
0	1473	423.875446595276	0
0	1478	425.827186384909	1
0	1482	426.9008828617	2
0	1486	427.200065583044	3
0	1487	427.811699331189	2
0	1489	428.726823871106	1
0	1494	429.134880950887	2
0	1495	429.731668198814	1
0	1497	434.943138501957	0
0	1502	440.862312899389	1
0	1506	441.614622519083	2
0	1510	443.299233128299	3
0	1514	444.756667904562	4
0	1515	444.857547884879	3
0	1517	445.153431923228	2
0	1522	445.614649185014	3
0	1523	445.774159502093	2
0	1525	446.150599791477	1
0	1530	446.550847641753	2
0	1531	446.91412120225	1
0	1533	448.473080036496	0
0	1538	448.992148391444	1
0	1542	450.336126222204	2
0	1543	450.418452897599	1
0	1545	451.088918172254	0
0	1550	451.223907079196	1
0	1554	451.85293497269	2
0	1555	451.995871194288	1
0	1557	452.315285534652	0
0	1562	460.583163342021	1
0	1566	460.816239449293	2
0	1567	461.210024003632	1
0	1572	462.240339170294	2
0	1573	463.396347272515	1
0	1575	464.504782525873	0
0	1580	464.878585788213	1
0	1584	465.190560126493	2
0	1585	465.306599320816	1
0	1590	466.326705440847	2
0	1591	466.369647965521	1
0	1593	466.83200146142	0
0	1598	466.962684263384	1
0	1599	467.524019702817	0
0	1604	469.678323975015	1
0	1605	474.091426975269	0
0	1610	474.28130475687	1
0	1614	474.450624256049	2
0	1615	475.101453285999	1
0	1620	476.993825943555	2
0	1621	478.27463161977	1
0	1626	478.538648670415	2
0	1627	478.575739171228	1
0	1629	481.785803055507	0
0	1634	484.792288918296	1
0	1638	484.798384004777	2
0	1639	485.594095340334	1
0	1644	487.279762841788	2
0	1645	487.981045763172	1
0	1647	488.918990551714	0
0	1652	489.925742480423	1
0	1656	490.312481919307	2
0	1660	491.910594731666	3
0	1661	493.101713980345	2
0	1663	493.311814513498	1
0	1665	494.725287516561	0
0	1670	499.435867311477	1
0	1671	499.556719431526	0
0	1676	501.628561895467	1
0	1680	501.987761703578	2
0	1684	504.391749313309	3
0	1685	504.982281430447	2
0	1690	505.811243268495	3
0	1691	507.283839395765	2
0	1693	508.583961086081	1
0	1695	508.703995792105	0
0	1700	509.04853359831	1
0	1704	509.612978378947	2
0	1708	509.781625356411	3
0	1712	510.875893232523	4
0	1713	511.418138626467	3
0	1715	511.485364686221	2
0	1720	511.826031835643	3
0	1721	512.352315664387	2
0	1726	513.44698337632	3
0	1730	514.379765111872	4
0	1731	514.421643807823	3
0	1733	514.585507992747	2
0	1735	516.194541997704	1
0	1740	516.314954304892	2
0	1741	516.54589944533	1
0	1746	516.726962461396	2
0	1750	517.250541711665	3
0	1751	518.111043113618	2
0	1753	518.141372125154	1
0	1755	519.426815043919	0
0	1760	523.226103160191	1
0	1764	524.571944582148	2
0	1765	525.036578320403	1
0	1767	525.382257240873	0
0	1772	526.786629058598	1
0	1776	526.989918410332	2
0	1780	528.577982846354	3
0	1781	529.31367673178	2
0	1783	529.865410453341	1
0	1788	532.691517137517	2
0	1792	532.917498108464	3
0	1793	533.480305131362	2
0	1795	533.632055264611	1
0	1797	533.892339195053	0
0	1802	535.283863832456	1
0	1806	536.052082205594	2
0	1807	536.882725693176	1
0	1809	537.526247966741	0
0	1814	537.810403994388	1
0	1818	539.05989900352	2
0	1819	539.431429862206	1
0	1821	539.63800309559	0
0	1826	541.049547495508	1
0	1827	543.796969732054	0
0	1832	545.999945029908	1
0	1836	549.914281209457	2
0	1840	551.146439425643	3
0	1841	551.435248069105	2
0	1846	551.905256968726	3
0	1847	554.518702679548	2
0	1852	554.974969500168	3
0	1853	557.143873651529	2
0	1855	557.216873287937	1
0	1860	557.456996218776	2
0	1864	558.760857999273	3
0	1868	559.376042865296	4
0	1872	559.590347527023	5
0	1873	559.91266053791	4
0	1875	560.171498235546	3
0	1877	561.263880985802	2
0	1882	561.337505618241	3
0	1886	561.380697225239	4
0	1890	561.668773763121	5
0	1891	561.840606113064	4
0	1893	561.954931399575	3
0	1895	562.105973339378	2
0	1897	563.803337179339	1
0	1899	563.88968311249	0
0	1904	565.386635044027	1
0	1908	565.417057537014	2
0	1912	566.593977656855	3
0	1913	567.200827263311	2
0	1918	567.441831335424	3
0	1922	567.70084567932	4
0	1926	567.800852549103	5
0	1927	567.934424519664	4
0	1932	569.41778758254	5
0	1933	569.752290048649	4
0	1935	570.507837865729	3
0	1940	570.657768279528	4
0	1944	572.341093812078	5
0	1948	573.271996027821	6
0	1949	573.353391407539	5
0	1951	573.506132703493	4
0	1953	574.709481310937	3
0	1958	577.238952401329	4
0	1959	577.635250821844	3
0	1961	578.611025274998	2
0	1963	579.552409547186	1
0	1968	581.488897523685	2
0	1969	582.027348815298	1
0	1974	582.995596691685	2
0	1975	583.868172136725	1
0	1977	584.214868626039	0
0	1982	585.314581815805	1
0	1983	586.735658662482	0
0	1988	590.187961075438	1
0	1992	591.191945640132	2
0	1993	591.854084251578	1
0	1998	594.912244041068	2
0	1999	595.30384118805	1
0	2001	595.493093132871	0
0	2006	595.773003343912	1
0	2010	595.970977223938	2
0	2011	596.108162830616	1
0	2016	596.461904069614	2
0	2017	597.57878820648	1
0	2022	601.284846777054	2
0	2026	601.736182623239	3
0	2027	602.501878609283	2
0	2029	602.875807870278	1
0	2034	605.019010404878	2
0	2038	605.264703274091	3
0	2039	605.604940902485	2
0	2041	605.965621243646	1
0	2046	609.114511331219	2
0	2047	610.426089471549	1
0	2052	611.394904056054	2
0	2056	611.676625021499	3
0	2057	612.241913575279	2
0	2062	613.083483782097	3
0	2066	613.464185688908	4
0	2067	613.478809329942	3
0	2069	614.112864176918	2
0	2071	614.42439839774	1
0	2073	614.690775650831	0
0	2078	615.8816828291	1
0	2079	616.73363320129	0
0	2084	620.591186940472	1
0	2088	621.129034943938	2
0	2092	621.551860421768	3
0	2093	621.834510900828	2
0	2098	622.27136447387	3
0	2102	622.659680726537	4
0	2103	622.717838921251	3
0	2108	624.627666631693	4
0	2109	625.829463680076	3
0	2111	625.905420263092	2
0	2113	627.83036469882	1
0	2118	629.472834003437	2
0	2122	629.491348033749	3
0	2126	631.111514110536	4
0	2130	631.242949057522	5
0	2131	632.783062205704	4
0	2133	633.30666718194	3
0	2135	637.346013528032	2
0	2137	637.429032895611	1
0	2139	637.601548995074	0
0	2144	637.75273985125	1
0	2148	638.079619220754	2
0	2149	638.733878830449	1
0	2151	640.046739898941	0
0	2156	640.770727294039	1
0	2160	641.762719150149	2
0	2164	643.104154566438	3
0	2165	643.895935266194	2
0	2167	644.515477044893	1
0	2169	645.012597670078	0
0	2174	645.711738854141	1
0	2175	648.443795741935	0
0	2180	648.55721006381	1
0	2184	649.158472385781	2
0	2185	651.64024474242	1
0	2190	651.842622804588	2
0	2194	654.045801502247	3
0	2195	654.757543169445	2
0	2200	655.167548223485	3
0	2204	655.430683830456	4
0	2205	655.545460715639	3
0	2210	656.137633854627	4
0	2211	657.82699016261	3
0	2213	659.378982768335	2
0	2218	660.243985724973	3
0	2219	660.681746422057	2
0	2221	662.089862699413	1
0	2226	662.816598453066	2
0	2227	663.360201833538	1
0	2232	665.473501691035	2
0	2236	666.588445728483	3
0	2237	666.608068567	2
0	2242	674.823327455731	3
0	2243	675.412911292518	2
0	2248	675.517959468934	3
0	2249	676.868473717986	2
0	2251	680.434862296156	1
0	2253	682.969013266702	0
0	2258	684.551774232257	1
0	2262	685.089674839231	2
0	2263	686.070714764954	1
0	2265	686.136048756331	0
0	2270	688.564330624478	1
0	2274	690.786520741824	2
0	2275	691.369589894928	1
0	2277	691.426278528122	0
0	2282	693.011338410147	1
0	2286	693.350471563734	2
0	2287	693.712366830931	1
0	2289	694.081613462124	0
0	2294	694.917329129641	1
0	2298	695.097666015714	2
0	2299	695.424056343393	1
0	2301	697.390014921138	0
0	2306	698.3116053117	1
0	2307	699.430567019182	0
0	2312	702.249022754006	1
0	2316	702.926602537027	2
0	2320	703.248285912611	3
0	2324	703.715080832432	4
0	2328	703.971655718709	5
0	2329	704.338990358012	4
0	2334	704.44723887376	5
0	2335	704.923403255152	4
0	2337	706.229109534486	3
0	2339	707.182377751767	2
0	2341	707.476219713139	1
0	2346	710.274744495734	2
0	2350	712.109251504263	3
0	2351	712.519262446862	2
0	2353	712.600922598052	1
0	2358	715.014738668238	2
0	2362	715.662920183455	3
0	2363	715.82718744608	2
0	2368	716.252049934	3
0	2372	716.598699994329	4
0	2373	718.909077605087	3
0	2378	719.640419789837	4
0	2382	720.025727387085	5
0	2383	720.103295817726	4
0	2388	721.806916444304	5
0	2392	722.01717823648	6
0	2393	722.203473463987	5
0	2395	722.601433020527	4
0	2400	722.796394233943	5
0	2401	723.364652490621	4
0	2403	723.465925588567	3
0	2405	725.365527439927	2
0	2410	725.478750770689	3
0	2414	726.146508403366	4
0	2415	727.540808642946	3
0	2417	728.03363829043	2
0	2419	728.611923024417	1
0	2424	729.976649322656	2
0	2425	730.557345655682	1
0	2427	732.437475632786	0
0	2432	733.579459291535	1
0	2436	735.017614269655	2
0	2437	735.707871876919	1
0	2439	739.435510914604	0
0	2444	741.620830041518	1
0	2448	742.681607887245	2
0	2452	744.858981332772	3
0	2453	745.240016056609	2
0	2455	745.394437624408	1
0	2457	747.757972733073	0
0	2462	747.985892180809	1
0	2463	753.650812309259	0
0	2468	755.168338826325	1
0	2469	755.569695178057	0
0	2474	756.144772561229	1
0	2475	756.310404967907	0
0	2480	756.911248795339	1
0	2484	757.854248702177	2
0	2485	758.819455475916	1
0	2490	759.906412143394	2
0	2494	763.334337284402	3
0	2498	764.392295660643	4
0	2502	764.506906160383	5
0	2503	765.374974854837	4
0	2505	765.985611921929	3
0	2507	766.232654532972	2
0	2512	767.066248086977	3
0	2513	768.749428544569	2
0	2515	769.424411656985	1
0	2520	769.826538885753	2
0	2524	769.998929805364	3
0	2525	770.140646414027	2
0	2527	770.370314517958	1
0	2529	770.875296342593	0
0	2534	776.715287040681	1
0	2538	779.113619231324	2
0	2542	779.757007362696	3
0	2546	779.799572097368	4
0	2550	780.304384580064	5
0	2551	781.72410310519	4
0	2556	782.326540648881	5
0	2557	782.888056230056	4
0	2559	783.831951700101	3
0	2561	784.751729957743	2
0	2563	785.942372135992	1
0	2565	786.678964312794	0
0	2570	786.952466207924	1
0	2574	788.824534403915	2
0	2575	789.079489470819	1
0	2580	789.571150637596	2
0	2581	789.685016356345	1
0	2586	789.871698833311	2
0	2590	790.450971371958	3
0	2594	790.612384142436	4
0	2598	791.088911299965	5
0	2599	791.443117045194	4
0	2601	791.567267780374	3
0	2606	792.210874430503	4
0	2610	793.767460325854	5
0	2611	794.942638615914	4
0	2616	795.293168493994	5
0	2620	795.966281793063	6
0	2621	796.376349054925	5
0	2623	796.484168687781	4
0	2625	796.861800050946	3
0	2627	798.395253529786	2
0	2629	799.029296516171	1
0	2631	799.199946293229	0
0	2636	799.511907161937	1
0	2640	800.458897165428	2
0	2641	800.881154851438	1
0	2646	801.631365556787	2
0	2647	801.957839608094	1
0	2652	804.472498493144	2
0	2656	805.565259622636	3
0	2660	805.986960179491	4
0	2664	807.52240908297	5
0	2668	807.634006950899	6
0	2672	808.095356969589	7
0	2676	808.670636960713	8
0	2677	809.508058904036	7
0	2679	809.533546576203	6
0	2681	809.786257376086	5
0	2683	809.870188809948	4
0	2685	811.072205367492	3
0	2687	812.319649448926	2
0	2689	815.000479465136	1
0	2694	815.778521354434	2
0	2695	817.367475711122	1
0	2700	819.016960041284	2
0	2701	819.225548891989	1
0	2706	820.133576994933	2
0	2710	820.419020353956	3
0	2714	822.709721470793	4
0	2715	823.500662238218	3
0	2717	823.874032145234	2
0	2722	823.995588419586	3
0	2723	824.948169972353	2
0	2728	824.998675507393	3
0	2729	826.097279577354	2
0	2731	826.34943169583	1
0	2736	828.205338320827	2
0	2740	828.406996372243	3
0	2741	828.593530070009	2
0	2743	828.657425151685	1
0	2748	831.573404330708	2
0	2749	832.654295667784	1
0	2754	832.741031760998	2
0	2758	832.846979573418	3
0	2759	833.667538596677	2
0	2761	835.056532918184	1
0	2766	836.084306455371	2
0	2770	836.506353844957	3
0	2771	836.525897413335	2
0	2776	836.977087371974	3
0	2777	837.340792373681	2
0	2782	837.389536741606	3
0	2783	837.657209596953	2
0	2788	838.235311535288	3
0	2792	838.251610128304	4
0	2796	838.52932797324	5
0	2797	839.722168621633	4
0	2802	840.343590359249	5
0	2806	840.811384323674	6
0	2807	841.031460679107	5
0	2809	841.105563510382	4
0	2811	841.119357875698	3
0	2813	841.155727528019	2
0	2815	841.339988715598	1
0	2820	841.625929921648	2
0	2821	843.286361552447	1
0	2823	845.791628713207	0
0	2828	846.400855453429	1
0	2832	847.354073991629	2
0	2833	847.74282523281	1
0	2835	847.873315317172	0
0	2840	851.385451667145	1
0	2844	851.423093754319	2
0	2845	853.112603552851	1
0	2850	855.779885234506	2
0	2851	856.224981246144	1
0	2856	856.639999537292	2
0	2857	857.053030238328	1
0	2862	857.090703548828	2
0	2863	857.30518808082	1
0	2865	861.44313827328	0
0	2870	864.001324995473	1
0	2871	864.205093238511	0
0	2876	864.803688507772	1
0	2877	865.105092139791	0
0	2882	868.985310762515	1
0	2883	869.068963765301	0
0	2888	872.911025672503	1
0	2892	873.052161732473	2
0	2893	874.360365445754	1
0	2898	875.214147512258	2
0	2899	875.907251300698	1
0	2904	876.187494839505	2
0	2905	876.19516724248	1
0	2910	877.147826783879	2
0	2911	877.764768578456	1
0	2913	878.083190813508	0
0	2918	878.337277162897	1
0	2919	878.798030928663	0
0	2924	879.247102903727	1
0	2928	881.170757350753	2
0	2929	881.526384221061	1
0	2934	882.069014159947	2
0	2938	884.627941452617	3
0	2942	885.367648149945	4
0	2943	885.475543064943	3
0	2945	885.488021064536	2
0	2950	886.394440433978	3
0	2951	886.416444838885	2
0	2956	886.662606341301	3
0	2957	886.810547063425	2
0	2959	887.060713283561	1
0	2961	887.922636283088	0
0	2966	890.327998245697	1
0	2967	891.689056919836	0
0	2972	892.974630808497	1
0	2976	893.655322497647	2
0	2977	894.032129637695	1
0	2982	895.105864391686	2
0	2983	895.395561587394	1
0	2985	896.737566742269	0
0	2990	897.436317061925	1
0	2991	897.695772310569	0
0	2996	900.727835978947	1
0	3000	902.02889652175	2
0	3001	903.051687777221	1
0	3003	903.140531963372	0
0	3008	905.182657534911	1
0	3012	907.406110221487	2
0	3013	908.399360689241	1
0	3015	908.523578287814	0
0	3020	913.4789225919	1
0	3024	914.228260468595	2
0	3025	916.890871434137	1
0	3030	917.31736600856	2
0	3031	918.594010331083	1
0	3036	919.762591076416	2
0	3037	920.587724791741	1
0	3039	920.654394900066	0
0	3044	920.784112555032	1
0	3048	920.986917409922	2
0	3052	921.168450707912	3
0	3053	921.42901203413	2
0	3058	923.14020132313	3
0	3059	923.390122663501	2
0	3064	923.584433058446	3
0	3065	924.620353115658	2
0	3067	924.890345608729	1
0	3072	925.207262030869	2
0	3073	929.376416163745	1
0	3075	930.912666158818	0
0	3080	931.565885505181	1
0	3081	933.130814491773	0
0	3086	934.415056513283	1
0	3090	935.534438022458	2
0	3094	937.862655814895	3
0	3095	937.944138299149	2
0	3100	939.190324377042	3
0	3101	939.645121366563	2
0	3103	939.88605095122	1
0	3108	942.652067732191	2
0	3109	943.20585189597	1
0	3114	943.480373156534	2
0	3118	945.436841213829	3
0	3122	945.71533386122	4
0	3123	945.876815720228	3
0	3125	945.926657698581	2
0	3130	946.001038536467	3
0	3131	946.947659700673	2
0	3133	949.847022387556	1
0	3135	952.427283123569	0
0	3140	953.534711118177	1
0	3144	955.142374441611	2
0	3145	956.16897189094	1
0	3150	956.367491374566	2
0	3151	956.53905963345	1
0	3156	958.246708112574	2
0	3157	959.146298719189	1
0	3162	960.562506185031	2
0	3166	960.675305299545	3
0	3167	961.760815449413	2
0	3169	962.430593196472	1
0	3171	963.098079482393	0
0	3176	967.432680054114	1
0	3180	969.760828411887	2
0	3181	970.195637574369	1
0	3183	971.668278392595	0
0	3188	972.306900419588	1
0	3192	972.888384464733	2
0	3196	974.680594562172	3
0	3197	975.225662235791	2
0	3199	977.010412286587	1
0	3204	977.883349193543	2
0	3205	977.937711775338	1
0	3207	978.129120346	0
0	3212	981.149384679059	1
0	3216	983.975890673099	2
0	3220	984.16024284171	3
0	3221	984.22890976938	2
0	3226	984.860130081997	3
0	3227	987.671284387057	2
0	3229	987.745027323938	1
0	3231	988.195825555179	0
0	3236	990.415512081471	1
0	3237	991.305156540675	0
0	3242	991.687536928675	1
0	3246	994.281665120444	2
0	3250	995.364911524298	3
0	3254	995.918888139031	4
0	3255	997.302339161912	3
0	3260	998.688294425982	4
0	3264	999.609734842963	5
1	388	101.236553828719	27
1	390	102.969892448733	26
1	394	104.673677311051	25
1	398	105.006071278139	26
1	400	106.697795134349	25
1	404	106.792715483932	26
1	406	108.436455684541	25
1	410	108.554365693394	26
1	412	109.189574475105	25
1	416	110.684095116472	24
1	420	111.982095354301	25
1	422	112.7595401382	24
1	426	113.290647356649	23
1	430	113.416814215921	22
1	434	113.458240488814	23
1	436	114.519809757479	24
1	438	115.190508607337	25
1	440	115.209023377831	24
1	444	115.252696685649	25
1	446	115.910501418384	26
1	448	116.814891734381	25
1	452	119.996594690775	26
1	454	120.582846584097	25
1	458	120.81177328194	26
1	460	123.449953294667	25
1	464	124.386734518062	24
1	468	124.481674261255	25
1	470	125.493414947732	26
1	472	125.954255586413	25
1	476	126.1626874334	26
1	478	129.237436106904	27
1	480	132.133951009304	26
1	484	132.411086709082	25
1	488	132.447365686639	24
1	492	134.101807270518	23
1	496	134.961362777866	22
1	500	135.177195972441	23
1	502	135.871560144434	24
1	504	137.027623411458	23
1	508	137.689599256553	22
1	512	138.286965516442	23
1	514	138.362720765148	24
1	516	138.797261610113	23
1	520	139.751561283616	22
1	524	139.965678440905	23
1	526	140.028688868876	22
1	530	140.587803230109	23
1	532	140.906239231231	24
1	534	140.970621719534	25
1	536	141.062321139942	26
1	538	141.877974052121	25
1	542	142.027431106422	24
1	546	142.925856095382	23
1	550	143.589848618204	24
1	552	144.138650609237	23
1	556	144.771771647521	24
1	558	148.798707716068	23
1	562	149.426688125785	22
1	566	149.436568268883	23
1	568	149.617990911077	22
1	572	149.977382970782	23
1	574	151.346904394607	24
1	576	151.71320868848	25
1	578	151.997302685602	24
1	582	152.301897200857	25
1	584	154.331999307093	24
1	588	154.349779969594	25
1	590	154.429489715116	24
1	594	155.196734807396	23
1	598	156.528852661553	24
1	600	156.656192436071	25
1	602	157.518927663119	26
1	604	159.569425593483	27
1	606	160.123415475197	26
1	610	162.840520663972	27
1	612	164.286243382587	26
1	616	165.777672323711	25
1	620	166.31649685606	24
1	624	166.599381227315	23
1	628	166.816685819242	24
1	630	167.117283577885	25
1	632	167.43963479268	26
1	634	168.183374240414	25
1	638	168.523689815029	26
1	640	172.32176464291	25
1	644	173.022721708635	26
1	646	174.411308535516	25
1	650	175.060835216461	26
1	652	175.538117127055	25
1	656	176.247592485197	26
1	658	176.591119977134	25
1	662	178.012869546981	26
1	664	179.593788156138	27
1	666	179.677284023495	26
1	670	180.287586822866	25
1	674	180.946025266967	24
1	678	180.992660759293	23
1	682	181.224030833956	24
1	684	181.62354560984	25
1	686	182.621750892648	26
1	688	183.224969321445	25
1	692	183.534026390338	24
1	696	183.705913195467	23
1	700	184.924555536872	24
1	702	185.68415183642	25
1	704	185.930111828192	24
1	708	186.356993707924	25
1	710	186.780695508191	26
1	712	188.611705853519	25
1	716	189.048292709474	26
1	718	190.449090644996	25
1	722	190.451750073712	26
1	724	190.558085372136	25
1	728	191.087596638217	26
1	730	191.229775415242	25
1	734	192.103535973417	26
1	736	193.986843506156	25
1	740	194.865161317231	26
1	742	195.058872496024	25
1	746	195.352992614347	24
1	750	195.406739913543	25
1	752	195.866974929812	26
1	754	196.740244004241	25
1	758	197.075737637909	24
1	762	197.145598379411	25
1	764	197.234511907985	24
1	768	198.262498100651	25
1	770	199.862387101307	26
1	772	202.345614842093	25
1	776	202.722563517598	24
1	780	203.359885695404	25
1	782	204.145466694467	24
1	786	204.355852764129	25
1	788	204.579658583653	24
1	792	205.300362750026	25
1	794	205.897234292569	26
1	796	205.954372128423	27
1	798	206.130810759723	26
1	802	207.353470987512	27
1	804	209.354373243813	26
1	808	209.765541483052	25