version 3
run General-36-20221103-10:28:22-6760
attr configname General
attr datetime 20221103-10:28:22
attr datetimef 20221103-102822
attr experiment General
attr inifile block.ini
attr iterationvars "$0=4, $1=20"
attr iterationvarsd 4/20
attr iterationvarsf 4,20-
attr measurement "$0=4, $1=20"
attr network Block
attr processid 6760
attr repetition 1
attr replication #1
attr resultdir results
attr runnumber 36
attr seedset 36
config network Block
config repeat 5
config sim-time-limit 1000s
config warmup-period 100s
config **.alloca.resourceModuleName "\"risorse\""
config **.dealloca.resourceModuleName "\"risorse\""
config **.is.delay exponential(3s)
config **.servente.serviceTime exponential(4s)
config **.dealloca.resourceAmount 2
config **.alloca.resourceAmount 2
config **.risorse.amount 6
config **.sorgente.numJobs (20)
config **.result-recording-modes all

vector 0 Block.servente queueLength:vector ETV
attr interpolationmode sample-hold
attr recordingmode vector
attr title "queue length"
vector 1 Block.servente queueingTime:vector ETV
attr interpolationmode none
attr recordingmode vector
attr title "queueing time at dequeue"
attr unit s
vector 2 Block.alloca queueLength:vector ETV
attr interpolationmode sample-hold
attr recordingmode vector
attr title "queue length"
vector 3 Block.alloca queueingTime:vector ETV
attr interpolationmode none
attr recordingmode vector
attr title "queueing time at dequeue"
attr unit s
vector 4 Block.risorse amount:vector ETV
attr interpolationmode sample-hold
attr recordingmode vector
attr title "available resource"
vector 5 Block.is delayedJobs:vector ETV
attr interpolationmode sample-hold
attr recordingmode vector
attr title "number of delayed jobs"
0	231	102.610689625338	1
0	233	102.610689625338	2
0	237	107.185134444414	1
0	239	107.185134444414	2
0	245	119.85292442448	1
0	247	119.85292442448	2
0	251	128.614371716564	1
0	253	128.614371716564	2
0	255	130.050747716753	1
0	257	130.050747716753	2
0	263	142.883982236147	1
0	265	142.883982236147	2
0	269	150.34599853113	1
0	271	150.34599853113	2
0	273	151.057229023313	1
0	275	151.057229023313	2
0	281	169.573718214951	1
0	283	169.573718214951	2
0	285	169.987809948359	1
0	287	169.987809948359	2
0	289	170.938390400041	1
0	291	170.938390400041	2
0	293	171.091200668222	1
0	295	171.091200668222	2
0	299	171.701329977217	1
0	301	171.701329977217	2
0	311	180.18146926058	1
0	313	180.18146926058	2
0	315	180.772451330286	1
0	317	180.772451330286	2
0	319	180.983495464345	1
0	321	180.983495464345	2
0	323	181.657637356583	1
0	325	181.657637356583	2
0	335	184.424604060898	1
0	337	184.424604060898	2
0	341	185.669565370528	1
0	343	185.669565370528	2
0	345	185.750514682335	1
0	347	185.750514682335	2
0	349	187.506715757462	1
0	351	187.506715757462	2
0	359	193.10486075355	1
0	361	193.10486075355	2
0	363	194.42519699319	1
0	365	194.42519699319	2
0	371	199.358734937292	1
0	373	199.358734937292	2
0	377	204.672125863282	1
0	379	204.672125863282	2
0	381	204.815742788552	1
0	383	204.815742788552	2
0	389	210.290735421114	1
0	391	210.290735421114	2
0	393	214.914967705872	1
0	395	214.914967705872	2
0	401	221.009229300109	1
0	403	221.009229300109	2
0	405	224.023728925133	1
0	407	224.023728925133	2
0	409	225.838295839589	1
0	411	225.838295839589	2
0	415	226.380187254616	1
0	417	226.380187254616	2
0	421	228.292602067589	1
0	423	228.292602067589	2
0	429	232.702101708476	1
0	431	232.702101708476	2
0	435	233.875150591923	1
0	437	233.875150591923	2
0	439	235.516275993926	1
0	441	235.516275993926	2
0	449	240.793129517923	1
0	451	240.793129517923	2
0	455	245.399175673111	1
0	457	245.399175673111	2
0	461	251.238036021402	1
0	463	251.238036021402	2
0	465	252.826321613147	1
0	467	252.826321613147	2
0	473	265.949278434125	1
0	475	265.949278434125	2
0	479	269.185021129557	1
0	481	269.185021129557	2
0	483	276.652606376184	1
0	485	276.652606376184	2
0	489	279.021899938756	1
0	491	279.021899938756	2
0	497	282.610287433273	1
0	499	282.610287433273	2
0	503	285.529794136863	1
0	505	285.529794136863	2
0	507	292.233192636766	1
0	509	292.233192636766	2
0	511	297.557404225553	1
0	513	297.557404225553	2
0	519	299.757081501606	1
0	521	299.757081501606	2
0	527	305.711991660486	1
0	529	305.711991660486	2
0	533	329.456053602148	1
0	535	329.456053602148	2
0	539	332.478217747675	1
0	541	332.478217747675	2
0	545	337.528141639321	1
0	547	337.528141639321	2
0	551	344.844186763567	1
0	553	344.844186763567	2
0	557	357.593054146209	1
0	559	357.593054146209	2
0	563	361.600568970679	1
0	565	361.600568970679	2
0	567	361.618082864645	1
0	569	361.618082864645	2
0	571	362.80277860347	1
0	573	362.80277860347	2
0	575	364.333999739861	1
0	577	364.333999739861	2
0	585	368.275845810685	1
0	587	368.275845810685	2
0	591	372.534612197501	1
0	593	372.534612197501	2
0	597	374.911011302842	1
0	599	374.911011302842	2
0	601	376.025656160148	1
0	603	376.025656160148	2
0	609	378.569177856544	1
0	611	378.569177856544	2
0	615	378.687036046368	1
0	617	378.687036046368	2
0	619	378.771272031793	1
0	621	378.771272031793	2
0	623	379.189318775184	1
0	625	379.189318775184	2
0	627	379.212025999366	1
0	629	379.212025999366	2
0	637	380.309048622711	1
0	639	380.309048622711	2
0	647	388.321508179564	1
0	649	388.321508179564	2
0	653	397.860510431888	1
0	655	397.860510431888	2
0	659	410.725738964061	1
0	661	410.725738964061	2
0	665	411.187618931714	1
0	667	411.187618931714	2
0	671	416.05692164659	1
0	673	416.05692164659	2
0	675	418.2252132189	1
0	677	418.2252132189	2
0	679	418.785710839907	1
0	681	418.785710839907	2
0	685	420.727357231658	1
0	687	420.727357231658	2
0	695	431.250667826654	1
0	697	431.250667826654	2
0	701	438.707334606995	1
0	703	438.707334606995	2
0	707	440.726709004924	1
0	709	440.726709004924	2
0	711	442.775620335607	1
0	713	442.775620335607	2
0	715	445.078441862649	1
0	717	445.078441862649	2
0	723	449.016827143974	1
0	725	449.016827143974	2
0	731	450.268189376248	1
0	733	450.268189376248	2
0	735	451.101405408394	1
0	737	451.101405408394	2
0	743	461.409704168401	1
0	745	461.409704168401	2
0	749	472.453891590721	1
0	751	472.453891590721	2
0	755	476.758485282871	1
0	757	476.758485282871	2
0	759	478.602959365004	1
0	761	478.602959365004	2
0	763	479.656912559021	1
0	765	479.656912559021	2
0	771	482.252088913372	1
0	773	482.252088913372	2
0	777	485.134588877373	1
0	779	485.134588877373	2
0	783	485.969041739856	1
0	785	485.969041739856	2
0	789	487.658608000439	1
0	791	487.658608000439	2
0	797	495.910663683042	1
0	799	495.910663683042	2
0	803	507.263473066296	1
0	805	507.263473066296	2
0	807	510.168250611532	1
0	809	510.168250611532	2
0	815	514.410943431332	1
0	817	514.410943431332	2
0	819	514.44529459849	1
0	821	514.44529459849	2
0	827	521.895129518445	1
0	829	521.895129518445	2
0	833	523.842311976594	1
0	835	523.842311976594	2
0	837	524.591555148839	1
0	839	524.591555148839	2
0	843	526.268540183289	1
0	845	526.268540183289	2
0	851	531.663467053159	1
0	853	531.663467053159	2
0	855	531.71670472559	1
0	857	531.71670472559	2
0	863	546.885499787264	1
0	865	546.885499787264	2
0	869	552.222196834634	1
0	871	552.222196834634	2
0	875	555.97339188213	1
0	877	555.97339188213	2
0	881	559.56076737424	1
0	883	559.56076737424	2
0	885	560.738312700027	1
0	887	560.738312700027	2
0	891	568.326421167146	1
0	893	568.326421167146	2
0	897	569.116807318655	1
0	899	569.116807318655	2
0	905	575.874750443223	1
0	907	575.874750443223	2
0	911	579.539477771564	1
0	913	579.539477771564	2
0	915	581.038405952403	1
0	917	581.038405952403	2
0	919	581.557282152164	1
0	921	581.557282152164	2
0	923	581.803254233617	1
0	925	581.803254233617	2
0	927	582.141506330483	1
0	929	582.141506330483	2
0	941	586.692009736719	1
0	943	586.692009736719	2
0	947	592.993718133325	1
0	949	592.993718133325	2
0	951	593.754523305833	1
0	953	593.754523305833	2
0	959	598.074138571463	1
0	961	598.074138571463	2
0	965	605.284703175932	1
0	967	605.284703175932	2
0	971	606.257028642403	1
0	973	606.257028642403	2
0	975	608.617138878686	1
0	977	608.617138878686	2
0	979	611.881665111598	1
0	981	611.881665111598	2
0	989	614.928318042367	1
0	991	614.928318042367	2
0	995	619.260929210137	1
0	997	619.260929210137	2
0	1001	622.706799195248	1
0	1003	622.706799195248	2
0	1007	626.195816102832	1
0	1009	626.195816102832	2
0	1011	629.187116399051	1
0	1013	629.187116399051	2
0	1015	629.717538803229	1
0	1017	629.717538803229	2
0	1021	632.637570441614	1
0	1023	632.637570441614	2
0	1031	636.643740096503	1
0	1033	636.643740096503	2
0	1037	640.646404592895	1
0	1039	640.646404592895	2
0	1043	644.565238483712	1
0	1045	644.565238483712	2
0	1049	657.67121095581	1
0	1051	657.67121095581	2
0	1055	660.089832005118	1
0	1057	660.089832005118	2
0	1061	668.682650203763	1
0	1063	668.682650203763	2
0	1067	681.830071268457	1
0	1069	681.830071268457	2
0	1073	703.82443973979	1
0	1075	703.82443973979	2
0	1077	706.89772639571	1
0	1079	706.89772639571	2
0	1085	714.34973256714	1
0	1087	714.34973256714	2
0	1089	714.401734639381	1
0	1091	714.401734639381	2
0	1097	717.960300038153	1
0	1099	717.960300038153	2
0	1101	719.763064379841	1
0	1103	719.763064379841	2
0	1105	721.651269405922	1
0	1107	721.651269405922	2
0	1109	722.689192961061	1
0	1111	722.689192961061	2
0	1119	730.94410767359	1
0	1121	730.94410767359	2
0	1127	736.279468658656	1
0	1129	736.279468658656	2
0	1131	737.038171011433	1
0	1133	737.038171011433	2
0	1139	740.020722337422	1
0	1141	740.020722337422	2
0	1143	742.296702406756	1
0	1145	742.296702406756	2
0	1151	766.276606564537	1
0	1153	766.276606564537	2
0	1157	771.128432175063	1
0	1159	771.128432175063	2
0	1163	775.338873567973	1
0	1165	775.338873567973	2
0	1167	775.817858611985	1
0	1169	775.817858611985	2
0	1171	775.981966739718	1
0	1173	775.981966739718	2
0	1177	776.966129391788	1
0	1179	776.966129391788	2
0	1183	777.165669405157	1
0	1185	777.165669405157	2
0	1193	786.689883597527	1
0	1195	786.689883597527	2
0	1197	787.046984421531	1
0	1199	787.046984421531	2
0	1205	796.81442662765	1
0	1207	796.81442662765	2
0	1209	798.879237076559	1
0	1211	798.879237076559	2
0	1217	799.144880017294	1
0	1219	799.144880017294	2
0	1223	801.469291767238	1
0	1225	801.469291767238	2
0	1227	802.353933917896	1
0	1229	802.353933917896	2
0	1235	804.953479246995	1
0	1237	804.953479246995	2
0	1241	808.280639691108	1
0	1243	808.280639691108	2
0	1247	810.74559860851	1
0	1249	810.74559860851	2
0	1253	812.327408717711	1
0	1255	812.327408717711	2
0	1257	818.566434020883	1
0	1259	818.566434020883	2
0	1265	821.171469226044	1
0	1267	821.171469226044	2
0	1271	822.861256839767	1
0	1273	822.861256839767	2
0	1275	823.88579091674	1
0	1277	823.88579091674	2
0	1281	828.572055503746	1
0	1283	828.572055503746	2
0	1287	829.272704153488	1
0	1289	829.272704153488	2
0	1295	837.834548267964	1
0	1297	837.834548267964	2
0	1299	843.112713126219	1
0	1301	843.112713126219	2
0	1303	843.566982053871	1
0	1305	843.566982053871	2
0	1311	844.510460875869	1
0	1313	844.510460875869	2
0	1319	847.776351524179	1
0	1321	847.776351524179	2
0	1325	851.676123154157	1
0	1327	851.676123154157	2
0	1331	861.455907378517	1
0	1333	861.455907378517	2
0	1335	865.580869865693	1
0	1337	865.580869865693	2
0	1343	872.528609128641	1
0	1345	872.528609128641	2
0	1349	876.228828157219	1
0	1351	876.228828157219	2
0	1353	876.310519167075	1
0	1355	876.310519167075	2
0	1361	894.007839229636	1
0	1363	894.007839229636	2
0	1365	894.749444425571	1
0	1367	894.749444425571	2
0	1373	899.646511646533	1
0	1375	899.646511646533	2
0	1377	899.751090007282	1
0	1379	899.751090007282	2
0	1385	904.556581720511	1
0	1387	904.556581720511	2
0	1391	906.287170685333	1
0	1393	906.287170685333	2
0	1395	907.818963346852	1
0	1397	907.818963346852	2
0	1401	910.30409706152	1
0	1403	910.30409706152	2
0	1409	913.010463925614	1
0	1411	913.010463925614	2
0	1413	913.22634608041	1
0	1415	913.22634608041	2
0	1419	914.059854641711	1
0	1421	914.059854641711	2
0	1423	914.107964202197	1
0	1425	914.107964202197	2
0	1429	918.482664526037	1
0	1431	918.482664526037	2
0	1433	918.722763431624	1
0	1435	918.722763431624	2
0	1439	921.111928745661	1
0	1441	921.111928745661	2
0	1447	922.066817911485	1
0	1449	922.066817911485	2
0	1451	923.160389490525	1
0	1453	923.160389490525	2
0	1455	923.887574348104	1
0	1457	923.887574348104	2
0	1469	930.771982666639	1
0	1471	930.771982666639	2
0	1473	932.471531377571	1
0	1475	932.471531377571	2
0	1481	940.275480782426	1
0	1483	940.275480782426	2
0	1485	941.025855153774	1
0	1487	941.025855153774	2
0	1491	942.133495308064	1
0	1493	942.133495308064	2
0	1499	955.881350679668	1
0	1501	955.881350679668	2
0	1505	957.227175298357	1
0	1507	957.227175298357	2
0	1511	958.306020152044	1
0	1513	958.306020152044	2
0	1517	964.452481029178	1
0	1519	964.452481029178	2
0	1521	968.086552320385	1
0	1523	968.086552320385	2
0	1525	968.925508606	1
0	1527	968.925508606	2
0	1535	978.614835427666	1
0	1537	978.614835427666	2
0	1539	979.042240900904	1
0	1541	979.042240900904	2
0	1543	979.460489801358	1
0	1545	979.460489801358	2
0	1553	989.428336870936	1
0	1555	989.428336870936	2
0	1557	990.507279154887	1
0	1559	990.507279154887	2
0	1563	991.204297299676	1
0	1565	991.204297299676	2
0	1569	994.584585151687	1
0	1571	994.584585151687	2
0	1573	994.595210094386	1
0	1575	994.595210094386	2
0	1577	994.773154890539	1
0	1579	994.773154890539	2
0	1585	998.957411476505	1
0	1587	998.957411476505	2
1	231	102.610689625338	7.541484782517
1	237	107.185134444414	7.647509170192
1	245	119.85292442448	17.242234799142
1	251	128.614371716564	21.42923727215
1	255	130.050747716753	10.197823292273
1	263	142.883982236147	14.269610519583
1	269	150.34599853113	20.295250814377
1	273	151.057229023313	8.173246787166
1	281	169.573718214951	19.227719683821
1	285	169.987809948359	18.930580925046
1	289	170.938390400041	1.36467218509
1	293	171.091200668222	1.103390719863
1	299	171.701329977217	0.762939577176
1	311	180.18146926058	9.090268592358
1	315	180.772451330286	9.071121353069
1	319	180.983495464345	0.802026203765
1	323	181.657637356583	0.885186026297
1	335	184.424604060898	3.441108596553
1	341	185.669565370528	4.011928013945
1	345	185.750514682335	1.325910621437
1	349	187.506715757462	1.837150386934
1	359	193.10486075355	7.354346071215
1	363	194.42519699319	6.918481235728
1	371	199.358734937292	6.253874183742
1	377	204.672125863282	10.246928870092
1	381	204.815742788552	5.45700785126
1	389	210.290735421114	5.618609557832
1	393	214.914967705872	10.09922491732
1	401	221.009229300109	10.718493878995
1	405	224.023728925133	9.108761219261
1	409	225.838295839589	4.82906653948
1	415	226.380187254616	2.356458329483
1	421	228.292602067589	2.454306228
1	429	232.702101708476	6.32191445386
1	435	233.875150591923	5.582548524334
1	439	235.516275993926	2.81417428545
1	449	240.793129517923	6.917978926
1	455	245.399175673111	9.882899679185
1	461	251.238036021402	10.444906503479
1	465	252.826321613147	7.427145940036
1	473	265.949278434125	14.711242412723
1	479	269.185021129557	16.35869951641
1	483	276.652606376184	10.703327942059
1	489	279.021899938756	9.836878809199
1	497	282.610287433273	5.957681057089
1	503	285.529794136863	6.507894198107
1	507	292.233192636766	9.622905203493
1	511	297.557404225553	12.02761008869
1	519	299.757081501606	7.52388886484
1	527	305.711991660486	8.154587434933
1	533	329.456053602148	29.698972100542
1	539	332.478217747675	26.766226087189
1	545	337.528141639321	8.072088037173
1	551	344.844186763567	12.365969015892
1	557	357.593054146209	20.064912506888
1	563	361.600568970679	16.756382207112
1	567	361.618082864645	4.025028718436
1	571	362.80277860347	1.202209632791
1	575	364.333999739861	2.715916875216
1	585	368.275845810685	5.473067207215
1	591	372.534612197501	8.20061245764
1	597	374.911011302842	6.635165492157
1	601	376.025656160148	3.491043962647
1	609	378.569177856544	3.658166553702
1	615	378.687036046368	2.66137988622
1	619	378.771272031793	0.202094175249
1	623	379.189318775184	0.502282728816
1	627	379.212025999366	0.440753967573
1	637	380.309048622711	1.119729847527
1	647	388.321508179564	9.109482180198
1	653	397.860510431888	17.551461809177
1	659	410.725738964061	22.404230784497
1	665	411.187618931714	13.327108499826
1	671	416.05692164659	5.331182682529
1	675	418.2252132189	7.037594287186
1	679	418.785710839907	2.728789193317
1	685	420.727357231658	2.502144012758
1	695	431.250667826654	12.464956986747
1	701	438.707334606995	17.979977375337
1	707	440.726709004924	9.47604117827
1	711	442.775620335607	4.068285728612
1	715	445.078441862649	4.351732857725
1	723	449.016827143974	6.241206808367
1	731	450.268189376248	5.189747513599
1	735	451.101405408394	2.08457826442
1	743	461.409704168401	11.141514792153
1	749	472.453891590721	21.352486182327
1	755	476.758485282871	15.34878111447
1	759	478.602959365004	6.149067774283
1	763	479.656912559021	2.89842727615
1	771	482.252088913372	3.649129548368
1	777	485.134588877373	5.477676318352
1	783	485.969041739856	3.716952826484
1	789	487.658608000439	2.524019123066
1	797	495.910663683042	9.941621943186
1	803	507.263473066296	19.604865065857
1	807	510.168250611532	14.25758692849
1	815	514.410943431332	7.147470365036
1	819	514.44529459849	4.277043986958
1	827	521.895129518445	7.484186087113
1	833	523.842311976594	9.397017378104
1	837	524.591555148839	2.696425630394
1	843	526.268540183289	2.426228206695
1	851	531.663467053159	7.07191190432
1	855	531.71670472559	5.448164542301
1	863	546.885499787264	15.222032734105
1	869	552.222196834634	20.505492109044
1	875	555.97339188213	9.087892094866
1	881	559.56076737424	7.338570539606
1	885	560.738312700027	4.764920817897
1	891	568.326421167146	8.765653792906
1	897	569.116807318655	8.378494618628
1	905	575.874750443223	7.548329276077
1	911	579.539477771564	10.422670452909
1	915	581.038405952403	5.16365550918
1	919	581.557282152164	2.0178043806
1	923	581.803254233617	0.764848281214
1	927	582.141506330483	0.584224178319
1	941	586.692009736719	4.888755503102
1	947	592.993718133325	10.852211802842
1	951	593.754523305833	7.062513569114
1	959	598.074138571463	5.080420438138
1	965	605.284703175932	11.530179870099
1	971	606.257028642403	8.18289007094
1	975	608.617138878686	3.332435702754
1	979	611.881665111598	5.624636469195
1	989	614.928318042367	6.311179163681
1	995	619.260929210137	7.379264098539
1	1001	622.706799195248	7.778481152881
1	1007	626.195816102832	6.934886892695
1	1011	629.187116399051	6.480317203803
1	1015	629.717538803229	3.521722700397
1	1021	632.637570441614	3.450454042563
1	1031	636.643740096503	6.926201293274
1	1037	640.646404592895	8.008834151281
1	1043	644.565238483712	7.921498387209
1	1049	657.67121095581	17.024806362915
1	1055	660.089832005118	15.524593521406
1	1061	668.682650203763	11.011439247953
1	1067	681.830071268457	21.740239263339
1	1073	703.82443973979	35.141789536027
1	1077	706.89772639571	25.067655127253
1	1085	714.34973256714	10.52529282735
1	1089	714.401734639381	7.504008243671
1	1097	717.960300038153	3.610567471013
1	1101	719.763064379841	5.36132974046
1	1105	721.651269405922	3.690969367769
1	1109	722.689192961061	2.92612858122
1	1119	730.94410767359	9.292838267668
1	1127	736.279468658656	13.590275697595
1	1131	737.038171011433	6.094063337843
1	1139	740.020722337422	3.741253678766
1	1143	742.296702406756	5.258531395323
1	1151	766.276606564537	26.255884227115
1	1157	771.128432175063	28.831729768307
1	1163	775.338873567973	9.062267003436
1	1167	775.817858611985	4.689426436922
1	1171	775.981966739718	0.643093171745
1	1177	776.966129391788	1.148270779803
1	1183	777.165669405157	1.183702665439
1	1193	786.689883597527	9.723754205739
1	1197	787.046984421531	9.881315016374
1	1205	796.81442662765	10.124543030123
1	1209	798.879237076559	11.832252655028
1	1217	799.144880017294	2.330453389644
1	1223	801.469291767238	2.590054690679
1	1227	802.353933917896	3.209053900602
1	1235	804.953479246995	3.484187479757
1	1241	808.280639691108	5.926705773212
1	1247	810.74559860851	5.792119361515
1	1253	812.327408717711	4.046769026603
1	1257	818.566434020883	7.820835412373
1	1265	821.171469226044	8.844060508333
1	1271	822.861256839767	4.294822818884
1	1275	823.88579091674	2.714321690696
1	1281	828.572055503746	5.710798663979
1	1287	829.272704153488	5.386913236748
1	1295	837.834548267964	9.262492764218
1	1299	843.112713126219	13.840008972731
1	1303	843.566982053871	5.732433785907
1	1311	844.510460875869	1.39774774965
1	1319	847.776351524179	4.209369470308
1	1325	851.676123154157	7.165662278288
1	1331	861.455907378517	13.679555854338
1	1335	865.580869865693	13.904746711536
1	1343	872.528609128641	11.072701750124
1	1349	876.228828157219	10.647958291526
1	1353	876.310519167075	3.781910038434
1	1361	894.007839229636	17.779011072417
1	1365	894.749444425571	18.438925258496
1	1373	899.646511646533	5.638672416897
1	1377	899.751090007282	5.001645581711
1	1385	904.556581720511	4.910070073978
1	1391	906.287170685333	6.536080678051
1	1395	907.818963346852	3.262381626341
1	1401	910.30409706152	4.016926376187
1	1409	913.010463925614	5.191500578762
1	1413	913.22634608041	2.92224901889
1	1419	914.059854641711	1.049390716097
1	1423	914.107964202197	0.881618121787
1	1429	918.482664526037	4.422809884326
1	1433	918.722763431624	4.614799229427
1	1439	921.111928745661	2.629264219624
1	1447	922.066817911485	3.344054479861
1	1451	923.160389490525	2.048460744864
1	1455	923.887574348104	1.820756436619
1	1469	930.771982666639	7.611593176114
1	1473	932.471531377571	8.583957029467
1	1481	940.275480782426	9.503498115787
1	1485	941.025855153774	8.554323776203
1	1491	942.133495308064	1.858014525638
1	1499	955.881350679668	14.855495525894
1	1505	957.227175298357	15.093679990293
1	1511	958.306020152044	2.424669472376
1	1517	964.452481029178	7.225305730821
1	1521	968.086552320385	9.780532168341
1	1525	968.925508606	4.473027576822
1	1535	978.614835427666	10.528283107281
1	1539	979.042240900904	10.116732294904
1	1543	979.460489801358	0.845654373692
1	1553	989.428336870936	10.386095970032
1	1557	990.507279154887	11.046789353529
1	1563	991.204297299676	1.77596042874
1	1569	994.584585151687	4.0773059968
1	1573	994.595210094386	3.39091279471
1	1577	994.773154890539	0.188569738852
1	1585	998.957411476505	4.362201382119
2	232	102.610689625338	15
2	236	103.100834239699	16
2	238	107.185134444414	15
2	242	107.546804707695	16
2	244	109.165342424962	17
2	246	119.85292442448	16
2	250	121.162688484084	17
2	252	128.614371716564	16
2	256	130.050747716753	15
2	260	131.677402970925	16
2	262	131.681894937888	17
2	264	142.883982236147	16
2	268	143.505090687057	17
2	270	150.34599853113	16
2	274	151.057229023313	15
2	278	151.646502922986	16
2	280	153.031968840442	17
2	282	169.573718214951	16
2	286	169.987809948359	15
2	290	170.938390400041	14
2	294	171.091200668222	13
2	298	171.53443881054	14
2	300	171.701329977217	13
2	304	172.357443022043	14
2	306	172.667114219727	15
2	308	174.432323944226	16
2	310	177.282887142877	17
2	312	180.18146926058	16
2	316	180.772451330286	15
2	320	180.983495464345	14
2	324	181.657637356583	13
2	328	181.673332958944	14
2	330	181.917622233671	15
2	332	184.018814092123	16
2	334	184.192256352206	17
2	336	184.424604060898	16
2	340	185.121551666112	17
2	342	185.669565370528	16
2	346	185.750514682335	15
2	350	187.506715757462	14
2	354	189.536922524805	15
2	356	190.81130081037	16
2	358	191.763672357449	17
2	360	193.10486075355	16
2	364	194.42519699319	15
2	368	194.638731325381	16
2	370	194.666562994843	17
2	372	199.358734937292	16
2	376	200.146354207276	17
2	378	204.672125863282	16
2	382	204.815742788552	15
2	386	205.346267467203	16
2	388	205.346383651453	17
2	390	210.290735421114	16
2	394	214.914967705872	15
2	398	215.78059343103	16
2	400	219.110786673233	17
2	402	221.009229300109	16
2	406	224.023728925133	15
2	410	225.838295839589	14
2	414	226.315111605855	15
2	416	226.380187254616	14
2	420	228.00380068592	15
2	422	228.292602067589	14
2	426	228.446783033345	15
2	428	228.526677215535	16
2	430	232.702101708476	15
2	434	232.853831343263	16
2	436	233.875150591923	15
2	440	235.516275993926	14
2	444	235.971912322415	15
2	446	236.665405790455	16
2	448	236.875549540013	17
2	450	240.793129517923	16
2	454	242.590544296198	17
2	456	245.399175673111	16
2	460	250.036873519585	17
2	462	251.238036021402	16
2	466	252.826321613147	15
2	470	256.563748662898	16
2	472	257.337563889996	17
2	474	265.949278434125	16
2	478	268.028675070095	17
2	480	269.185021129557	16
2	484	276.652606376184	15
2	488	277.874645786887	16
2	490	279.021899938756	15
2	494	279.435187365853	16
2	496	279.965960684033	17
2	498	282.610287433273	16
2	502	285.086195835213	17
2	504	285.529794136863	16
2	508	292.233192636766	15
2	512	297.557404225553	14
2	516	297.957347825946	15
2	518	298.861560826872	16
2	520	299.757081501606	15
2	524	300.53399926342	16
2	526	301.217892962528	17
2	528	305.711991660486	16
2	532	307.366743404455	17
2	534	329.456053602148	16
2	538	330.04319331085	17
2	540	332.478217747675	16
2	544	332.511807476354	17
2	546	337.528141639321	16
2	550	341.959165135224	17
2	552	344.844186763567	16
2	556	353.902525911397	17
2	558	357.593054146209	16
2	562	358.473876857047	17
2	564	361.600568970679	16
2	568	361.618082864645	15
2	572	362.80277860347	14
2	576	364.333999739861	13
2	580	366.077150199276	14
2	582	366.356994111545	15
2	584	368.202237188461	16
2	586	368.275845810685	15
2	590	371.303647092886	16
2	592	372.534612197501	15
2	596	373.908385658205	16
2	598	374.911011302842	15
2	602	376.025656160148	14
2	606	376.601653020925	15
2	608	377.208185229893	16
2	610	378.569177856544	15
2	614	378.632446180264	16
2	616	378.687036046368	15
2	620	378.771272031793	14
2	624	379.189318775184	13
2	628	379.212025999366	12
2	632	379.37224067922	13
2	634	379.392604111142	14
2	636	379.670342336727	15
2	638	380.309048622711	14
2	642	380.918911571516	15
2	644	382.185622184066	16
2	646	383.296370328416	17
2	648	388.321508179564	16
2	652	389.429741952029	17
2	654	397.860510431888	16
2	658	403.62697627882	17
2	660	410.725738964061	16
2	664	410.99216575211	17
2	666	411.187618931714	16
2	670	413.837386688128	17
2	672	416.05692164659	16
2	676	418.2252132189	15
2	680	418.785710839907	14
2	684	418.816053186581	15
2	686	420.727357231658	14
2	690	420.872059886378	15
2	692	420.920989535327	16
2	694	421.662238938341	17
2	696	431.250667826654	16
2	700	435.214961761268	17
2	702	438.707334606995	16
2	706	439.799364559247	17
2	708	440.726709004924	16
2	712	442.775620335607	15
2	716	445.078441862649	14
2	720	445.521469589179	15
2	722	446.837327455508	16
2	724	449.016827143974	15
2	728	449.5438824159	16
2	730	450.212966668401	17
2	732	450.268189376248	16
2	736	451.101405408394	15
2	740	457.052285793001	16
2	742	459.310462298566	17
2	744	461.409704168401	16
2	748	469.724057947447	17
2	750	472.453891590721	16
2	754	472.67919388049	17
2	756	476.758485282871	16
2	760	478.602959365004	15
2	764	479.656912559021	14
2	768	480.412850036016	15
2	770	481.670182547413	16
2	772	482.252088913372	15
2	776	482.506680092395	16
2	778	485.134588877373	15
2	782	485.860923745243	16
2	784	485.969041739856	15
2	788	486.53305145668	16
2	790	487.658608000439	15
2	794	488.080855424396	16
2	796	489.256573545935	17
2	798	495.910663683042	16
2	802	499.961985495893	17
2	804	507.263473066296	16
2	808	510.168250611532	15
2	812	510.771653252536	16
2	814	512.353812696422	17
2	816	514.410943431332	16
2	820	514.44529459849	15
2	824	515.98021727162	16
2	826	517.16361155704	17
2	828	521.895129518445	16
2	832	523.184190243589	17
2	834	523.842311976594	16
2	838	524.591555148839	15
2	842	525.787948998367	16
2	844	526.268540183289	15
2	848	528.709865294487	16
2	850	530.82421846783	17
2	852	531.663467053159	16
2	856	531.71670472559	15
2	860	533.150737768129	16
2	862	540.450403239808	17
2	864	546.885499787264	16
2	868	548.837308012806	17
2	870	552.222196834634	16
2	874	554.533144756893	17
2	876	555.97339188213	16
2	880	556.54748862707	17
2	882	559.56076737424	16
2	886	560.738312700027	15
2	890	561.012823372268	16
2	892	568.326421167146	15
2	896	568.382904855111	16
2	898	569.116807318655	15
2	902	571.184621540288	16
2	904	574.821231752017	17
2	906	575.874750443223	16
2	910	577.791638892153	17
2	912	579.539477771564	16
2	916	581.038405952403	15
2	920	581.557282152164	14
2	924	581.803254233617	13
2	928	582.141506330483	12
2	932	582.30889650533	13
2	934	583.675819522943	14
2	936	583.759196626069	15
2	938	584.282625863569	16
2	940	585.50407889952	17
2	942	586.692009736719	16
2	946	589.772679569707	17
2	948	592.993718133325	16
2	952	593.754523305833	15
2	956	593.756622768744	16
2	958	595.603599197119	17
2	960	598.074138571463	16
2	964	598.54432902998	17
2	966	605.284703175932	16
2	970	606.061482364994	17
2	972	606.257028642403	16
2	976	608.617138878686	15
2	980	611.881665111598	14
2	984	612.895760562086	15
2	986	613.558024610047	16
2	988	614.136299763719	17
2	990	614.928318042367	16
2	994	616.922416591553	17
2	996	619.260929210137	16
2	1000	621.884193237172	17
2	1002	622.706799195248	16
2	1006	625.335784745093	17
2	1008	626.195816102832	16
2	1012	629.187116399051	15
2	1016	629.717538803229	14
2	1020	630.443788688194	15
2	1022	632.637570441614	14
2	1026	632.882104115335	15
2	1028	635.157374898421	16
2	1030	636.342685891627	17
2	1032	636.643740096503	16
2	1036	638.145502418161	17
2	1038	640.646404592895	16
2	1042	641.811806662972	17
2	1044	644.565238483712	16
2	1048	652.162343606708	17
2	1050	657.67121095581	16
2	1054	657.993483026797	17
2	1056	660.089832005118	16
2	1060	661.955892934788	17
2	1062	668.682650203763	16
2	1066	673.661151777764	17
2	1068	681.830071268457	16
2	1072	685.392564655221	17
2	1074	703.82443973979	16
2	1078	706.89772639571	15
2	1082	708.21234659438	16
2	1084	713.457539439636	17
2	1086	714.34973256714	16
2	1090	714.401734639381	15
2	1094	714.860538028015	16
2	1096	715.052683985252	17
2	1098	717.960300038153	16
2	1102	719.763064379841	15
2	1106	721.651269405922	14
2	1110	722.689192961061	13
2	1114	724.471176801893	14
2	1116	725.720165582186	15
2	1118	728.598687887861	16
2	1120	730.94410767359	15
2	1124	734.029619855771	16
2	1126	735.791920365674	17
2	1128	736.279468658656	16
2	1132	737.038171011433	15
2	1136	737.13051868212	16
2	1138	739.117668874316	17
2	1140	740.020722337422	16
2	1144	742.296702406756	15
2	1148	745.124298838006	16
2	1150	746.525124486102	17
2	1152	766.276606564537	16
2	1156	768.99148439173	17