version 3
run General-20-20221103-10:28:22-6760
attr configname General
attr datetime 20221103-10:28:22
attr datetimef 20221103-102822
attr experiment General
attr inifile block.ini
attr iterationvars "$0=3, $1=20"
attr iterationvarsd 3/20
attr iterationvarsf 3,20-
attr measurement "$0=3, $1=20"
attr network Block
attr processid 6760
attr repetition 0
attr replication #0
attr resultdir results
attr runnumber 20
attr seedset 20
config network Block
config repeat 5
config sim-time-limit 1000s
config warmup-period 100s
config **.alloca.resourceModuleName "\"risorse\""
config **.dealloca.resourceModuleName "\"risorse\""
config **.is.delay exponential(3s)
config **.servente.serviceTime exponential(3s)
config **.dealloca.resourceAmount 2
config **.alloca.resourceAmount 2
config **.risorse.amount 6
config **.sorgente.numJobs (20)
config **.result-recording-modes all

vector 0 Block.is delayedJobs:vector ETV
attr interpolationmode sample-hold
attr recordingmode vector
attr title "number of delayed jobs"
vector 1 Block.alloca queueLength:vector ETV
attr interpolationmode sample-hold
attr recordingmode vector
attr title "queue length"
vector 2 Block.servente queueLength:vector ETV
attr interpolationmode sample-hold
attr recordingmode vector
attr title "queue length"
vector 3 Block.servente queueingTime:vector ETV
attr interpolationmode none
attr recordingmode vector
attr title "queueing time at dequeue"
attr unit s
vector 4 Block.alloca queueingTime:vector ETV
attr interpolationmode none
attr recordingmode vector
attr title "queueing time at dequeue"
attr unit s
vector 5 Block.risorse amount:vector ETV
attr interpolationmode sample-hold
attr recordingmode vector
attr title "available resource"
0	273	100.934582400173	0
0	278	103.093271839774	1
0	279	103.622154475384	0
0	284	106.86443851457	1
0	288	107.914536872905	2
0	292	109.110701636674	3
0	293	109.599346912922	2
0	295	109.620902674631	1
0	300	110.047175865781	2
0	304	110.487650705616	3
0	308	111.883080994196	4
0	312	111.930682182833	5
0	313	112.063659055542	4
0	315	113.157596587474	3
0	320	113.198794345943	4
0	321	114.023344024038	3
0	323	116.40762511962	2
0	325	116.819153541549	1
0	327	117.825133930566	0
0	332	123.140000690418	1
0	336	123.793924828085	2
0	337	125.831576131905	1
0	339	127.070228290555	0
0	344	134.10845733927	1
0	348	134.370965653405	2
0	352	135.155631571603	3
0	356	135.680387629858	4
0	357	136.03444398025	3
0	359	137.228643831011	2
0	361	137.317608114862	1
0	363	137.767385715327	0
0	368	143.645765402073	1
0	369	143.759132095057	0
0	374	151.446865865055	1
0	375	155.141063323211	0
0	380	157.080834985225	1
0	384	158.904467012865	2
0	385	159.986988471776	1
0	390	161.25239196791	2
0	394	162.477811456507	3
0	395	163.097671443429	2
0	397	163.417114453254	1
0	399	163.910978138799	0
0	404	166.099269252769	1
0	405	167.134746093379	0
0	410	169.11425298024	1
0	414	170.557538859679	2
0	415	170.821291460976	1
0	417	171.558359736752	0
0	422	177.436290362819	1
0	426	178.969466609198	2
0	430	180.310961346441	3
0	431	180.42945715496	2
0	436	185.531707474934	3
0	440	185.679065000268	4
0	441	186.947287785041	3
0	443	186.966728473737	2
0	445	187.64739580728	1
0	450	189.457745358253	2
0	454	189.777770773172	3
0	455	191.857270241005	2
0	457	192.025892473858	1
0	459	193.100830421348	0
0	464	199.945375314749	1
0	468	200.601628556838	2
0	469	201.538744212471	1
0	471	203.175783465858	0
0	476	205.582258886388	1
0	480	206.633283843082	2
0	481	206.78135052889	1
0	483	208.38995714993	0
0	488	209.046982255105	1
0	489	212.614241094399	0
0	494	213.72632125288	1
0	495	214.793227195	0
0	500	216.842378052967	1
0	501	217.385633011111	0
0	506	218.762105242523	1
0	507	219.973638231678	0
0	512	224.566453215069	1
0	513	225.108997021112	0
0	518	226.812050379543	1
0	522	228.000827706212	2
0	523	229.00315778759	1
0	528	232.191540170474	2
0	529	232.53308704589	1
0	531	234.194612445627	0
0	536	245.946744009718	1
0	537	246.320040252338	0
0	542	248.719793160836	1
0	543	252.945702591692	0
0	548	253.16307475509	1
0	549	258.640161494679	0
0	554	259.542641630328	1
0	555	259.651193134171	0
0	560	260.252997596798	1
0	561	260.641423677077	0
0	566	271.948134666147	1
0	570	277.898593137405	2
0	571	278.597578518923	1
0	573	280.069982894895	0
0	578	282.445649093009	1
0	582	283.931004451464	2
0	586	285.784035568634	3
0	590	286.366573228612	4
0	591	286.542395232967	3
0	593	288.014632828965	2
0	598	288.247267544686	3
0	602	289.97109958493	4
0	603	290.193300653542	3
0	605	290.235841628407	2
0	607	291.431472738149	1
0	612	291.81275517233	2
0	613	293.125229544298	1
0	615	293.484153167694	0
0	620	294.843727820659	1
0	621	296.519988540273	0
0	626	306.494559635452	1
0	627	308.002463346706	0
0	632	310.006982718067	1
0	636	310.257356698712	2
0	640	311.057722265574	3
0	641	311.661727176327	2
0	646	312.295910884254	3
0	647	312.451366551685	2
0	652	313.787150248991	3
0	653	313.90918075395	2
0	655	315.444930262213	1
0	657	315.592814953009	0
0	662	318.636123055406	1
0	666	318.797659472122	2
0	670	319.1558751068	3
0	671	319.428992767877	2
0	676	321.655309547171	3
0	677	321.897403317386	2
0	682	321.908116304229	3
0	683	322.533035513569	2
0	685	323.001447347771	1
0	690	323.785772801007	2
0	691	324.212749788637	1
0	696	327.177108163394	2
0	700	327.199756434449	3
0	701	328.51525014532	2
0	706	330.604954835448	3
0	707	330.870262802783	2
0	709	331.772322970318	1
0	711	332.109144888288	0
0	716	335.463680977991	1
0	717	339.404695452318	0
0	722	346.202258941974	1
0	726	352.104444678173	2
0	727	352.133361903927	1
0	732	353.743890443882	2
0	733	354.557637508164	1
0	738	360.644831942773	2
0	742	361.753475627801	3
0	743	362.504102693558	2
0	745	363.254954348852	1
0	750	365.451221868992	2
0	751	366.101291025014	1
0	756	367.905000569932	2
0	760	369.064715136091	3
0	764	369.202367993818	4
0	768	370.160516739268	5
0	769	370.965354781796	4
0	771	371.720885339272	3
0	773	371.905741711944	2
0	775	375.333923676401	1
0	777	376.232291142375	0
0	782	377.606772552313	1
0	786	380.079819389773	2
0	790	380.470591934625	3
0	791	381.159198513602	2
0	796	382.954120041583	3
0	797	383.970727109731	2
0	799	384.408719181115	1
0	801	384.451644445081	0
0	806	384.459445540778	1
0	810	386.775263948226	2
0	814	387.821772801759	3
0	815	388.71624166273	2
0	820	389.938848339785	3
0	821	391.510088581516	2
0	823	392.974668504958	1
0	828	393.033413313003	2
0	829	393.182385355154	1
0	834	393.913230857957	2
0	835	393.936647449643	1
0	837	398.62912481113	0
0	842	400.393012674174	1
0	843	400.633508703113	0
0	848	405.058932154403	1
0	852	408.80608128587	2
0	856	409.401131607013	3
0	857	413.406650949275	2
0	859	413.501842176094	1
0	864	415.509348405573	2
0	865	418.706758995449	1
0	867	421.547835484215	0
0	872	426.735961313353	1
0	873	427.522995210913	0
0	878	429.962513601463	1
0	882	430.048272829719	2
0	883	430.296992269125	1
0	888	430.826283815936	2
0	889	432.760248359218	1
0	891	434.123554842341	0
0	896	438.152325553201	1
0	897	442.42933816522	0
0	902	443.584612569317	1
0	903	445.581168548995	0
0	908	445.608031903523	1
0	912	445.758008980995	2
0	913	446.576649213537	1
0	915	447.20075801399	0
0	920	447.84354189028	1
0	924	448.265383609703	2
0	928	449.693779947333	3
0	929	451.226442551823	2
0	934	451.642036304419	3
0	935	452.266159538766	2
0	937	455.073141966325	1
0	939	460.274540420888	0
0	944	462.790007640725	1
0	948	462.988768010821	2
0	949	463.401053192484	1
0	951	464.812701261488	0
0	956	474.943120673123	1
0	960	476.583914792064	2
0	961	477.045636283536	1
0	963	478.165130975177	0
0	968	487.289481242306	1
0	969	488.175000930135	0
0	974	488.713102143777	1
0	978	488.906096118986	2
0	979	491.600624725886	1
0	984	493.694313063622	2
0	985	495.66789360341	1
0	987	496.997680934577	0
0	992	498.779917072318	1
0	996	500.035992449176	2
0	1000	500.324056453482	3
0	1004	501.081460550452	4
0	1005	501.352945153556	3
0	1007	503.174511554688	2
0	1009	507.074918015817	1
0	1014	509.040795703579	2
0	1015	510.062548195937	1
0	1020	511.270898570416	2
0	1024	511.401965168828	3
0	1025	512.353972910588	2
0	1027	512.388890482144	1
0	1029	513.620622272137	0
0	1034	516.984564105992	1
0	1038	519.440692099	2
0	1042	520.120187425014	3
0	1046	520.619223862124	4
0	1047	521.620448383326	3
0	1049	521.741082172255	2
0	1051	523.67471808205	1
0	1053	526.450897382805	0
0	1058	526.561329471852	1
0	1062	529.536215135527	2
0	1063	530.070307953134	1
0	1065	533.925566347882	0
0	1070	534.184115613351	1
0	1074	535.446665919555	2
0	1075	535.938902647549	1
0	1080	538.160160520836	2
0	1084	540.106171465077	3
0	1085	540.443098109193	2
0	1087	541.234886862043	1
0	1089	544.51378739594	0
0	1094	544.745028112881	1
0	1095	545.427695658706	0
0	1100	551.560935003438	1
0	1104	561.09421807671	2
0	1105	562.986646884257	1
0	1107	564.230391210093	0
0	1112	564.231924320037	1
0	1116	564.31975817169	2
0	1117	564.823608842929	1
0	1119	567.87327888025	0
0	1124	571.930511781628	1
0	1128	573.655666996514	2
0	1129	575.869636639292	1
0	1131	576.897271358689	0
0	1136	578.837794017422	1
0	1137	582.838087763372	0
0	1142	586.477607580716	1
0	1146	592.460508881898	2
0	1147	593.593068657161	1
0	1152	595.354883210494	2
0	1156	596.037811187361	3
0	1157	596.862313566084	2
0	1159	597.19020610264	1
0	1161	603.696945938948	0
0	1166	605.035183452408	1
0	1167	605.160605019077	0
0	1172	609.656180795186	1
0	1176	611.216152565626	2
0	1180	611.663106995956	3
0	1181	614.005285120377	2
0	1183	614.400804515404	1
0	1185	616.676104405194	0
0	1190	618.989763949113	1
0	1194	620.602728920928	2
0	1195	621.975540136649	1
0	1200	622.479851348226	2
0	1204	622.666705456452	3
0	1205	623.999591903596	2
0	1210	624.533521611742	3
0	1211	624.7674605787	2
0	1213	626.495599771042	1
0	1218	629.074819537178	2
0	1219	631.381682965901	1
0	1221	632.787602369241	0
0	1226	634.638777300151	1
0	1227	634.692194552546	0
0	1232	636.241070153029	1
0	1233	636.438224557701	0
0	1238	636.477371349127	1
0	1242	636.629165084627	2
0	1243	636.850571362585	1
0	1248	638.659950032787	2
0	1252	638.968894709174	3
0	1253	639.756828274518	2
0	1255	641.819164692703	1
0	1257	641.960697748624	0
0	1262	642.996811675395	1
0	1263	645.416105437104	0
0	1268	649.434878732207	1
0	1272	649.635260500498	2
0	1276	650.545728180171	3
0	1280	650.59809192382	4
0	1281	650.772518295964	3
0	1286	652.674357356934	4
0	1290	653.859708130462	5
0	1291	654.076284249633	4
0	1293	654.858504258025	3
0	1295	655.677028227918	2
0	1300	657.247049843729	3
0	1304	657.312558794868	4
0	1305	657.996741492373	3
0	1310	658.792930822371	4
0	1311	659.305331690562	3
0	1313	660.402201054322	2
0	1315	661.787164091561	1
0	1320	662.386500405231	2
0	1324	662.934812687315	3
0	1325	662.955750055785	2
0	1327	664.255546571051	1
0	1332	664.296613949388	2
0	1336	664.896928038816	3
0	1337	666.366241325432	2
0	1342	668.736152518884	3
0	1346	669.769004738858	4
0	1347	670.743551462982	3
0	1352	670.857326452193	4
0	1353	671.06412573441	3
0	1355	672.395897581593	2
0	1360	672.728507890285	3
0	1361	672.781122631892	2
0	1363	678.260909061802	1
0	1365	678.881850251641	0
0	1370	680.234580676416	1
0	1371	681.577526848518	0
0	1376	685.149187334983	1
0	1380	685.767654531755	2
0	1384	687.358834053948	3
0	1385	688.209681921459	2
0	1387	689.480872918019	1
0	1389	692.906041392322	0
0	1394	693.14503140792	1
0	1398	693.316582230835	2
0	1402	698.817144466894	3
0	1403	699.027273197887	2
0	1408	701.651280221314	3
0	1409	702.706015839824	2
0	1414	704.244179736386	3
0	1415	705.119088216325	2
0	1420	705.863615867373	3
0	1424	706.511842365493	4
0	1425	706.600461794436	3
0	1427	708.397076072165	2
0	1429	710.553260461944	1
0	1434	711.129652002711	2
0	1435	717.408179541384	1
0	1437	718.259012950956	0
0	1442	721.092636655083	1
0	1443	722.824124158647	0
0	1448	723.363570178571	1
0	1449	724.092628883663	0
0	1454	727.63740587182	1
0	1455	729.677380293323	0
0	1460	735.402072822	1
0	1464	736.317396114212	2
0	1468	736.547252291922	3
0	1469	736.67694372661	2
0	1471	738.012994529609	1
0	1476	741.411897473342	2
0	1480	741.5534710643	3
0	1481	742.657788688089	2
0	1483	742.938115981367	1
0	1488	742.963551752868	2
0	1489	743.133145768771	1
0	1491	743.174277219969	0
0	1496	747.046617059122	1
0	1497	747.759561149393	0
0	1502	751.996570802691	1
0	1506	753.962274293196	2
0	1507	754.786719394754	1
0	1512	755.786038474021	2
0	1513	755.830942474315	1
0	1515	760.288203543313	0
0	1520	763.38686548997	1
0	1524	764.480055672921	2
0	1528	764.508389221044	3
0	1529	765.052744210137	2
0	1531	765.852313741008	1
0	1533	767.393641052621	0
0	1538	770.453421388762	1
0	1542	771.115391195631	2
0	1543	771.609912146366	1
0	1548	772.157212607536	2
0	1549	780.032626996756	1
0	1551	781.232196026568	0
0	1556	781.834823785515	1
0	1557	783.788438296693	0
0	1562	785.235371526185	1
0	1566	786.331885004987	2
0	1570	787.130675627865	3
0	1571	787.723554268737	2
0	1573	789.338525595971	1
0	1575	790.17729182716	0
0	1580	792.150020876584	1
0	1581	792.263623321153	0
0	1586	806.074934200444	1
0	1590	811.647787783855	2
0	1591	814.865703670965	1
0	1596	815.913168539792	2
0	1597	818.2744965079	1
0	1599	819.852682941466	0
0	1604	821.785947602023	1
0	1605	823.627547951345	0
0	1610	825.21987644758	1
0	1611	826.854036361294	0
0	1616	833.192429656546	1
0	1620	837.257623963864	2
0	1621	838.675444281169	1
0	1623	839.241389420142	0
0	1628	840.789735950957	1
0	1632	841.838180125624	2
0	1633	842.334565475104	1
0	1635	843.274109265693	0
0	1640	845.035041583258	1
0	1644	846.535557677673	2
0	1645	849.709678490629	1
0	1650	853.464638568026	2
0	1651	853.817117384411	1
0	1653	854.021239897391	0
0	1658	859.140416710717	1
0	1662	861.158479238436	2
0	1663	862.593584045691	1
0	1665	863.172780895625	0
0	1670	867.949225147932	1
0	1674	868.20721429986	2
0	1678	868.508480938047	3
0	1679	869.203843292288	2
0	1681	869.605724210765	1
0	1686	870.895757012817	2
0	1687	872.880880943429	1
0	1689	872.919203391482	0
0	1694	873.632143577647	1
0	1695	874.272911250392	0
0	1700	885.540177404508	1
0	1701	886.151148929573	0
0	1706	887.602186233169	1
0	1707	888.675431340969	0
0	1712	891.324357499282	1
0	1713	894.015052105721	0
0	1718	894.760608782684	1
0	1719	896.816837272088	0
0	1724	899.180487671132	1
0	1728	903.359469688968	2
0	1732	904.116197086282	3
0	1736	904.305491983502	4
0	1737	904.535584637839	3
0	1742	905.464447268208	4
0	1743	906.182380584303	3
0	1745	906.482193206264	2
0	1747	906.634678562305	1
0	1752	907.990883578907	2
0	1753	908.118721138306	1
0	1758	908.463716718481	2
0	1759	909.362730506056	1
0	1761	909.75426187572	0
0	1766	915.660831915115	1
0	1767	919.246207364653	0
0	1772	930.45526161488	1
0	1773	931.371781436541	0
0	1778	933.702384319352	1
0	1779	934.858650539784	0
0	1784	940.720777656021	1
0	1788	942.078971365319	2
0	1792	945.515756865226	3
0	1796	946.043948105641	4
0	1800	946.662816587717	5
0	1801	948.551354361286	4
0	1803	950.224380164307	3
0	1805	950.237927087627	2
0	1807	954.490818294407	1
0	1812	954.778965203325	2
0	1813	956.492692620172	1
0	1815	960.008930900776	0
0	1820	962.535519925353	1
0	1821	963.281832206979	0
0	1826	965.589453545674	1
0	1827	966.405308269641	0
0	1832	966.690297397244	1
0	1833	967.806542639401	0
0	1838	970.903002242762	1
0	1842	973.596541727519	2
0	1846	973.773922463907	3
0	1850	974.873692030363	4
0	1851	974.915054050179	3
0	1853	976.651682889679	2
0	1858	977.05385437572	3
0	1859	980.832981680274	2
0	1861	981.420165382384	1
0	1866	981.773610087327	2
0	1867	981.786833748128	1
0	1869	982.716409172428	0
0	1874	982.862836679819	1
0	1875	982.995595448312	0
0	1880	992.821940959939	1
0	1881	992.83658456673	0
0	1886	994.326984852431	1
0	1890	994.806522284209	2
0	1894	994.929387587373	3
0	1895	995.022590263608	2
0	1897	996.00557646988	1
0	1902	996.324185074294	2
1	274	100.934582400173	17
1	276	103.093271839774	16
1	280	103.622154475384	17
1	282	106.86443851457	16
1	286	107.914536872905	15
1	290	109.110701636674	14
1	294	109.599346912922	15
1	296	109.620902674631	16
1	298	110.047175865781	15
1	302	110.487650705616	14
1	306	111.883080994196	13
1	310	111.930682182833	12
1	314	112.063659055542	13
1	316	113.157596587474	14
1	318	113.198794345943	13
1	322	114.023344024038	14
1	324	116.40762511962	15
1	326	116.819153541549	16
1	328	117.825133930566	17
1	330	123.140000690418	16
1	334	123.793924828085	15
1	338	125.831576131905	16
1	340	127.070228290555	17
1	342	134.10845733927	16
1	346	134.370965653405	15
1	350	135.155631571603	14
1	354	135.680387629858	13
1	358	136.03444398025	14
1	360	137.228643831011	15
1	362	137.317608114862	16
1	364	137.767385715327	17
1	366	143.645765402073	16
1	370	143.759132095057	17
1	372	151.446865865055	16
1	376	155.141063323211	17
1	378	157.080834985225	16
1	382	158.904467012865	15
1	386	159.986988471776	16
1	388	161.25239196791	15
1	392	162.477811456507	14
1	396	163.097671443429	15
1	398	163.417114453254	16
1	400	163.910978138799	17
1	402	166.099269252769	16
1	406	167.134746093379	17
1	408	169.11425298024	16
1	412	170.557538859679	15
1	416	170.821291460976	16
1	418	171.558359736752	17
1	420	177.436290362819	16
1	424	178.969466609198	15
1	428	180.310961346441	14
1	432	180.42945715496	15
1	434	185.531707474934	14
1	438	185.679065000268	13
1	442	186.947287785041	14
1	444	186.966728473737	15
1	446	187.64739580728	16
1	448	189.457745358253	15
1	452	189.777770773172	14
1	456	191.857270241005	15
1	458	192.025892473858	16
1	460	193.100830421348	17
1	462	199.945375314749	16
1	466	200.601628556838	15
1	470	201.538744212471	16
1	472	203.175783465858	17
1	474	205.582258886388	16
1	478	206.633283843082	15
1	482	206.78135052889	16
1	484	208.38995714993	17
1	486	209.046982255105	16
1	490	212.614241094399	17
1	492	213.72632125288	16
1	496	214.793227195	17
1	498	216.842378052967	16
1	502	217.385633011111	17
1	504	218.762105242523	16
1	508	219.973638231678	17
1	510	224.566453215069	16
1	514	225.108997021112	17
1	516	226.812050379543	16
1	520	228.000827706212	15
1	524	229.00315778759	16
1	526	232.191540170474	15
1	530	232.53308704589	16
1	532	234.194612445627	17
1	534	245.946744009718	16
1	538	246.320040252338	17
1	540	248.719793160836	16
1	544	252.945702591692	17
1	546	253.16307475509	16
1	550	258.640161494679	17
1	552	259.542641630328	16
1	556	259.651193134171	17
1	558	260.252997596798	16
1	562	260.641423677077	17
1	564	271.948134666147	16
1	568	277.898593137405	15
1	572	278.597578518923	16
1	574	280.069982894895	17
1	576	282.445649093009	16
1	580	283.931004451464	15
1	584	285.784035568634	14
1	588	286.366573228612	13
1	592	286.542395232967	14
1	594	288.014632828965	15
1	596	288.247267544686	14
1	600	289.97109958493	13
1	604	290.193300653542	14
1	606	290.235841628407	15
1	608	291.431472738149	16
1	610	291.81275517233	15
1	614	293.125229544298	16
1	616	293.484153167694	17
1	618	294.843727820659	16
1	622	296.519988540273	17
1	624	306.494559635452	16
1	628	308.002463346706	17
1	630	310.006982718067	16
1	634	310.257356698712	15
1	638	311.057722265574	14
1	642	311.661727176327	15
1	644	312.295910884254	14
1	648	312.451366551685	15
1	650	313.787150248991	14
1	654	313.90918075395	15
1	656	315.444930262213	16
1	658	315.592814953009	17
1	660	318.636123055406	16
1	664	318.797659472122	15
1	668	319.1558751068	14
1	672	319.428992767877	15
1	674	321.655309547171	14
1	678	321.897403317386	15
1	680	321.908116304229	14
1	684	322.533035513569	15
1	686	323.001447347771	16
1	688	323.785772801007	15
1	692	324.212749788637	16
1	694	327.177108163394	15
1	698	327.199756434449	14
1	702	328.51525014532	15
1	704	330.604954835448	14
1	708	330.870262802783	15
1	710	331.772322970318	16
1	712	332.109144888288	17
1	714	335.463680977991	16
1	718	339.404695452318	17
1	720	346.202258941974	16
1	724	352.104444678173	15
1	728	352.133361903927	16
1	730	353.743890443882	15
1	734	354.557637508164	16
1	736	360.644831942773	15
1	740	361.753475627801	14
1	744	362.504102693558	15
1	746	363.254954348852	16
1	748	365.451221868992	15
1	752	366.101291025014	16
1	754	367.905000569932	15
1	758	369.064715136091	14
1	762	369.202367993818	13
1	766	370.160516739268	12
1	770	370.965354781796	13
1	772	371.720885339272	14
1	774	371.905741711944	15
1	776	375.333923676401	16
1	778	376.232291142375	17
1	780	377.606772552313	16
1	784	380.079819389773	15
1	788	380.470591934625	14
1	792	381.159198513602	15
1	794	382.954120041583	14
1	798	383.970727109731	15
1	800	384.408719181115	16
1	802	384.451644445081	17
1	804	384.459445540778	16
1	808	386.775263948226	15
1	812	387.821772801759	14
1	816	388.71624166273	15
1	818	389.938848339785	14
1	822	391.510088581516	15
1	824	392.974668504958	16
1	826	393.033413313003	15
1	830	393.182385355154	16
1	832	393.913230857957	15
1	836	393.936647449643	16
1	838	398.62912481113	17
1	840	400.393012674174	16
1	844	400.633508703113	17
1	846	405.058932154403	16
1	850	408.80608128587	15
1	854	409.401131607013	14
1	858	413.406650949275	15
1	860	413.501842176094	16
1	862	415.509348405573	15
1	866	418.706758995449	16
1	868	421.547835484215	17
1	870	426.735961313353	16
1	874	427.522995210913	17
1	876	429.962513601463	16
1	880	430.048272829719	15
1	884	430.296992269125	16
1	886	430.826283815936	15
1	890	432.760248359218	16
1	892	434.123554842341	17
1	894	438.152325553201	16
1	898	442.42933816522	17
1	900	443.584612569317	16
1	904	445.581168548995	17
1	906	445.608031903523	16
1	910	445.758008980995	15
1	914	446.576649213537	16
1	916	447.20075801399	17
1	918	447.84354189028	16
1	922	448.265383609703	15
1	926	449.693779947333	14
1	930	451.226442551823	15
1	932	451.642036304419	14
1	936	452.266159538766	15
1	938	455.073141966325	16
1	940	460.274540420888	17
1	942	462.790007640725	16
1	946	462.988768010821	15
1	950	463.401053192484	16
1	952	464.812701261488	17
1	954	474.943120673123	16
1	958	476.583914792064	15
1	962	477.045636283536	16
1	964	478.165130975177	17
1	966	487.289481242306	16
1	970	488.175000930135	17
1	972	488.713102143777	16
1	976	488.906096118986	15
1	980	491.600624725886	16
1	982	493.694313063622	15
1	986	495.66789360341	16
1	988	496.997680934577	17
1	990	498.779917072318	16
1	994	500.035992449176	15
1	998	500.324056453482	14
1	1002	501.081460550452	13
1	1006	501.352945153556	14
1	1008	503.174511554688	15
1	1010	507.074918015817	16
1	1012	509.040795703579	15
1	1016	510.062548195937	16
1	1018	511.270898570416	15
1	1022	511.401965168828	14
1	1026	512.353972910588	15
1	1028	512.388890482144	16
1	1030	513.620622272137	17
1	1032	516.984564105992	16
1	1036	519.440692099	15
1	1040	520.120187425014	14
1	1044	520.619223862124	13
1	1048	521.620448383326	14
1	1050	521.741082172255	15
1	1052	523.67471808205	16
1	1054	526.450897382805	17
1	1056	526.561329471852	16
1	1060	529.536215135527	15
1	1064	530.070307953134	16
1	1066	533.925566347882	17
1	1068	534.184115613351	16
1	1072	535.446665919555	15
1	1076	535.938902647549	16
1	1078	538.160160520836	15
1	1082	540.106171465077	14
1	1086	540.443098109193	15
1	1088	541.234886862043	16
1	1090	544.51378739594	17
1	1092	544.745028112881	16
1	1096	545.427695658706	17
1	1098	551.560935003438	16
1	1102	561.09421807671	15
1	1106	562.986646884257	16
1	1108	564.230391210093	17
1	1110	564.231924320037	16
1	1114	564.31975817169	15
1	1118	564.823608842929	16
1	1120	567.87327888025	17
1	1122	571.930511781628	16
1	1126	573.655666996514	15
1	1130	575.869636639292	16
1	1132	576.897271358689	17
1	1134	578.837794017422	16
1	1138	582.838087763372	17
1	1140	586.477607580716	16
1	1144	592.460508881898	15
1	1148	593.593068657161	16
1	1150	595.354883210494	15
1	1154	596.037811187361	14
1	1158	596.862313566084	15
1	1160	597.19020610264	16
1	1162	603.696945938948	17
1	1164	605.035183452408	16
1	1168	605.160605019077	17
1	1170	609.656180795186	16
1	1174	611.216152565626	15
1	1178	611.663106995956	14
1	1182	614.005285120377	15
1	1184	614.400804515404	16
1	1186	616.676104405194	17
1	1188	618.989763949113	16
1	1192	620.602728920928	15
1	1196	621.975540136649	16
1	1198	622.479851348226	15
1	1202	622.666705456452	14
1	1206	623.999591903596	15
1	1208	624.533521611742	14
1	1212	624.7674605787	15
1	1214	626.495599771042	16
1	1216	629.074819537178	15
1	1220	631.381682965901	16
1	1222	632.787602369241	17
1	1224	634.638777300151	16
1	1228	634.692194552546	17
1	1230	636.241070153029	16
1	1234	636.438224557701	17
1	1236	636.477371349127	16
1	1240	636.629165084627	15
1	1244	636.850571362585	16
1	1246	638.659950032787	15
1	1250	638.968894709174	14
1	1254	639.756828274518	15
1	1256	641.819164692703	16
1	1258	641.960697748624	17
1	1260	642.996811675395	16
1	1264	645.416105437104	17
1	1266	649.434878732207	16
1	1270	649.635260500498	15
1	1274	650.545728180171	14
1	1278	650.59809192382	13
1	1282	650.772518295964	14
1	1284	652.674357356934	13
1	1288	653.859708130462	12
1	1292	654.076284249633	13
1	1294	654.858504258025	14
1	1296	655.677028227918	15
1	1298	657.247049843729	14
1	1302	657.312558794868	13
1	1306	657.996741492373	14
1	1308	658.792930822371	13
1	1312	659.305331690562	14
1	1314	660.402201054322	15
1	1316	661.787164091561	16
1	1318	662.386500405231	15
1	1322	662.934812687315	14
1	1326	662.955750055785	15
1	1328	664.255546571051	16
1	1330	664.296613949388	15
1	1334	664.896928038816	14
1	1338	666.366241325432	15
1	1340	668.736152518884	14
1	1344	669.769004738858	13
1	1348	670.743551462982	14
1	1350	670.857326452193	13
1	1354	671.06412573441	14
1	1356	672.395897581593	15
1	1358	672.728507890285	14
1	1362	672.781122631892	15
1	1364	678.260909061802	16
1	1366	678.881850251641	17
1	1368	680.234580676416	16
1	1372	681.577526848518	17
1	1374	685.149187334983	16
1	1378	685.767654531755	15
1	1382	687.358834053948	14
1	1386	688.209681921459	15
1	1388	689.480872918019	16
1	1390	692.906041392322	17
1	1392	693.14503140792	16
1	1396	693.316582230835	15
1	1400	698.817144466894	14
1	1404	699.027273197887	15
1	1406	701.651280221314	14
1	1410	702.706015839824	15
1	1412	704.244179736386	14
1	1416	705.119088216325	15
1	1418	705.863615867373	14
1	1422	706.511842365493	13
1	1426	706.600461794436	14
1	1428	708.397076072165	15
1	1430	710.553260461944	16
1	1432	711.129652002711	15
1	1436	717.408179541384	16
1	1438	718.259012950956	17
1	1440	721.092636655083	16
1	1444	722.824124158647	17
1	1446	723.363570178571	16
1	1450	724.092628883663	17
1	1452	727.63740587182	16
1	1456	729.677380293323	17
1	1458	735.402072822	16
1	1462	736.317396114212	15
1	1466	736.547252291922	14
1	1470	736.67694372661	15
1	1472	738.012994529609	16
1	1474	741.411897473342	15
1	1478	741.5534710643	14
1	1482	742.657788688089	15
1	1484	742.938115981367	16
1	1486	742.963551752868	15
1	1490	743.133145768771	16
1	1492	743.174277219969	17
1	1494	747.046617059122	16
1	1498	747.759561149393	17
1	1500	751.996570802691	16
1	1504	753.962274293196	15
1	1508	754.786719394754	16
1	1510	755.786038474021	15
1	1514	755.830942474315	16
1	1516	760.288203543313	17
1	1518	763.38686548997	16
1	1522	764.480055672921	15
1	1526	764.508389221044	14
1	1530	765.052744210137	15
1	1532	765.852313741008	16
1	1534	767.393641052621	17
1	1536	770.453421388762	16
1	1540	771.115391195631	15
1	1544	771.609912146366	16
1	1546	772.157212607536	15
1	1550	780.032626996756	16
1	1552	781.232196026568	17
1	1554	781.834823785515	16
1	1558	783.788438296693	17
1	1560	785.235371526185	16
1	1564	786.331885004987	15
1	1568	787.130675627865	14
1	1572	787.723554268737	15
1	1574	789.338525595971	16
1	1576	790.17729182716	17
1	1578	792.150020876584	16
1	1582	792.263623321153	17
1	1584	806.074934200444	16
1	1588	811.647787783855	15
1	1592	814.865703670965	16
1	1594	815.913168539792	15
1	1598	818.2744965079	16
1	1600	819.852682941466	17
1	1602	821.785947602023	16
1	1606	823.627547951345	17
1	1608	825.21987644758	16
1	1612	826.854036361294	17
1	1614	833.192429656546	16
1	1618	837.257623963864	15
1	1622	838.675444281169	16
1	1624	839.241389420142	17
1	1626	840.789735950957	16
1	1630	841.838180125624	15
1	1634	842.334565475104	16
1	1636	843.274109265693	17
1	1638	845.035041583258	16
1	1642	846.535557677673	15
1	1646	849.709678490629	16
1	1648	853.464638568026	15
1	1652	853.817117384411	16
1	1654	854.021239897391	17
1	1656	859.140416710717	16
1	1660	861.158479238436	15
1	1664	862.593584045691	16
1	1666	863.172780895625	17
1	1668	867.949225147932	16
1	1672	868.20721429986	15
1	1676	868.508480938047	14
1	1680	869.203843292288	15
1	1682	869.605724210765	16
1	1684	870.895757012817	15
1	1688	872.880880943429	16
1	1690	872.919203391482	17
1	1692	873.632143577647	16
1	1696	874.272911250392	17
1	1698	885.540177404508	16
1	1702	886.151148929573	17
1	1704	887.602186233169	16
1	1708	888.675431340969	17
1	1710	891.324357499282	16
1	1714	894.015052105721	17
1	1716	894.760608782684	16
1	1720	896.816837272088	17
1	1722	899.180487671132	16
1	1726	903.359469688968	15
1	1730	904.116197086282	14
1	1734	904.305491983502	13
1	1738	904.535584637839	14
1	1740	905.464447268208	13
1	1744	906.182380584303	14
1	1746	906.482193206264	15
1	1748	906.634678562305	16
1	1750	907.990883578907	15
1	1754	908.118721138306	16
1	1756	908.463716718481	15
1	1760	909.362730506056	16
1	1762	909.75426187572	17
1	1764	915.660831915115	16
1	1768	919.246207364653	17
1	1770	930.45526161488	16
1	1774	931.371781436541	17
1	1776	933.702384319352	16
1	1780	934.858650539784	17
1	1782	940.720777656021	16
1	1786	942.078971365319	15
1	1790	945.515756865226	14
1	1794	946.043948105641	13
1	1798	946.662816587717	12
1	1802	948.551354361286	13
1	1804	950.224380164307	14
1	1806	950.237927087627	15
1	1808	954.490818294407	16
1	1810	954.778965203325	15
1	1814	956.492692620172	16
1	1816	960.008930900776	17
1	1818	962.535519925353	16
1	1822	963.281832206979	17
1	1824	965.589453545674	16
1	1828	966.405308269641	17
1	1830	966.690297397244	16
1	1834	967.806542639401	17
1	1836	970.903002242762	16
1	1840	973.596541727519	15
1	1844	973.773922463907	14
1	1848	974.873692030363	13
1	1852	974.915054050179	14
1	1854	976.651682889679	15
1	1856	977.05385437572	14
1	1860	980.832981680274	15
1	1862	981.420165382384	16
1	1864	981.773610087327	15
1	1868	981.786833748128	16
1	1870	982.716409172428	17
1	1872	982.862836679819	16
1	1876	982.995595448312	17
1	1878	992.821940959939	16
1	1882	992.83658456673	17
1	1884	994.326984852431	16
1	1888	994.806522284209	15
1	1892	994.929387587373	14
1	1896	995.022590263608	15
1	1898	996.00557646988	16
1	1900	996.324185074294	15
2	275	103.093271839774	1
2	277	103.093271839774	2
2	281	106.86443851457	1
2	283	106.86443851457	2