version 3
run General-17-20221103-10:28:22-6760
attr configname General
attr datetime 20221103-10:28:22
attr datetimef 20221103-102822
attr experiment General
attr inifile block.ini
attr iterationvars "$0=3, $1=10"
attr iterationvarsd 3/10
attr iterationvarsf 3,10-
attr measurement "$0=3, $1=10"
attr network Block
attr processid 6760
attr repetition 2
attr replication #2
attr resultdir results
attr runnumber 17
attr seedset 17
config network Block
config repeat 5
config sim-time-limit 1000s
config warmup-period 100s
config **.alloca.resourceModuleName "\"risorse\""
config **.dealloca.resourceModuleName "\"risorse\""
config **.is.delay exponential(3s)
config **.servente.serviceTime exponential(3s)
config **.dealloca.resourceAmount 2
config **.alloca.resourceAmount 2
config **.risorse.amount 6
config **.sorgente.numJobs (10)
config **.result-recording-modes all

vector 0 Block.servente queueLength:vector ETV
attr interpolationmode sample-hold
attr recordingmode vector
attr title "queue length"
vector 1 Block.servente queueingTime:vector ETV
attr interpolationmode none
attr recordingmode vector
attr title "queueing time at dequeue"
attr unit s
vector 2 Block.alloca queueLength:vector ETV
attr interpolationmode sample-hold
attr recordingmode vector
attr title "queue length"
vector 3 Block.alloca queueingTime:vector ETV
attr interpolationmode none
attr recordingmode vector
attr title "queueing time at dequeue"
attr unit s
vector 4 Block.risorse amount:vector ETV
attr interpolationmode sample-hold
attr recordingmode vector
attr title "available resource"
vector 5 Block.is delayedJobs:vector ETV
attr interpolationmode sample-hold
attr recordingmode vector
attr title "number of delayed jobs"
0	299	101.338150892282	1
0	301	101.338150892282	2
0	305	107.032328714768	1
0	307	107.032328714768	2
0	311	107.821748422506	1
0	313	107.821748422506	2
0	317	113.105893043003	1
0	319	113.105893043003	2
0	321	114.126185230521	1
0	323	114.126185230521	2
0	329	123.252660890966	1
0	331	123.252660890966	2
0	333	124.506610302998	1
0	335	124.506610302998	2
0	341	126.707283282551	1
0	343	126.707283282551	2
0	345	134.387920529434	1
0	347	134.387920529434	2
0	349	134.420180276533	1
0	351	134.420180276533	2
0	355	135.816637906525	1
0	357	135.816637906525	2
0	365	140.377959516987	1
0	367	140.377959516987	2
0	369	142.473874447187	1
0	371	142.473874447187	2
0	373	142.657649656115	1
0	375	142.657649656115	2
0	381	143.424738920785	1
0	383	143.424738920785	2
0	389	152.885600138177	1
0	391	152.885600138177	2
0	395	153.425322267394	1
0	397	153.425322267394	2
0	399	154.746075625554	1
0	401	154.746075625554	2
0	407	166.03058783945	1
0	409	166.03058783945	2
0	411	167.831688538238	1
0	413	167.831688538238	2
0	415	171.13190438652	1
0	417	171.13190438652	2
0	423	172.630027884287	1
0	425	172.630027884287	2
0	431	175.778214862679	1
0	433	175.778214862679	2
0	437	179.652840945396	1
0	439	179.652840945396	2
0	443	186.978353938898	1
0	445	186.978353938898	2
0	449	187.924760979084	1
0	451	187.924760979084	2
0	453	189.420267681391	1
0	455	189.420267681391	2
0	459	192.790725646079	1
0	461	192.790725646079	2
0	463	194.803086827576	1
0	465	194.803086827576	2
0	471	197.032600561955	1
0	473	197.032600561955	2
0	475	198.239851196097	1
0	477	198.239851196097	2
0	485	207.821721041114	1
0	487	207.821721041114	2
0	489	208.608425207813	1
0	491	208.608425207813	2
0	497	212.90778482789	1
0	499	212.90778482789	2
0	503	213.427767637103	1
0	505	213.427767637103	2
0	509	225.260546652791	1
0	511	225.260546652791	2
0	513	226.125071133327	1
0	515	226.125071133327	2
0	517	226.642336947767	1
0	519	226.642336947767	2
0	525	228.974713327315	1
0	527	228.974713327315	2
0	531	229.457244097247	1
0	533	229.457244097247	2
0	537	232.281120447132	1
0	539	232.281120447132	2
0	543	234.800937979497	1
0	545	234.800937979497	2
0	551	240.449319282524	1
0	553	240.449319282524	2
0	555	240.502290422179	1
0	557	240.502290422179	2
0	559	241.864595076337	1
0	561	241.864595076337	2
0	565	244.784806769862	1
0	567	244.784806769862	2
0	571	245.5671586087	1
0	573	245.5671586087	2
0	577	247.439536206751	1
0	579	247.439536206751	2
0	581	249.670513781492	1
0	583	249.670513781492	2
0	589	253.10735084383	1
0	591	253.10735084383	2
0	593	253.506764707566	1
0	595	253.506764707566	2
0	601	255.005511672641	1
0	603	255.005511672641	2
0	605	255.446670978187	1
0	607	255.446670978187	2
0	611	257.321650956724	1
0	613	257.321650956724	2
0	621	259.414723060414	1
0	623	259.414723060414	2
0	625	259.840566910692	1
0	627	259.840566910692	2
0	635	268.05906462537	1
0	637	268.05906462537	2
0	641	270.802274282531	1
0	643	270.802274282531	2
0	647	273.224006920447	1
0	649	273.224006920447	2
0	653	283.216634392818	1
0	655	283.216634392818	2
0	657	283.712220738347	1
0	659	283.712220738347	2
0	661	285.268082465097	1
0	663	285.268082465097	2
0	669	287.707730776496	1
0	671	287.707730776496	2
0	673	288.743285061966	1
0	675	288.743285061966	2
0	681	291.98191107056	1
0	683	291.98191107056	2
0	687	294.606493999484	1
0	689	294.606493999484	2
0	695	304.051328210714	1
0	697	304.051328210714	2
0	699	307.293494662044	1
0	701	307.293494662044	2
0	707	322.042867535843	1
0	709	322.042867535843	2
0	713	323.813261130098	1
0	715	323.813261130098	2
0	717	323.966809241469	1
0	719	323.966809241469	2
0	721	324.359717009485	1
0	723	324.359717009485	2
0	725	325.831685041136	1
0	727	325.831685041136	2
0	733	328.007348573639	1
0	735	328.007348573639	2
0	739	329.557748854858	1
0	741	329.557748854858	2
0	749	335.12484036429	1
0	751	335.12484036429	2
0	755	349.715170818027	1
0	757	349.715170818027	2
0	761	351.449644488294	1
0	763	351.449644488294	2
0	767	359.834700795258	1
0	769	359.834700795258	2
0	773	367.246218533445	1
0	775	367.246218533445	2
0	777	367.532288357618	1
0	779	367.532288357618	2
0	781	367.808963920655	1
0	783	367.808963920655	2
0	789	371.862890078783	1
0	791	371.862890078783	2
0	793	371.989656335254	1
0	795	371.989656335254	2
0	797	375.43488568995	1
0	799	375.43488568995	2
0	809	384.854390757754	1
0	811	384.854390757754	2
0	813	386.643541510528	1
0	815	386.643541510528	2
0	817	388.152054207872	1
0	819	388.152054207872	2
0	825	391.668238793259	1
0	827	391.668238793259	2
0	833	395.266081206103	1
0	835	395.266081206103	2
0	839	398.055756963125	1
0	841	398.055756963125	2
0	845	406.669256806922	1
0	847	406.669256806922	2
0	849	408.057304509756	1
0	851	408.057304509756	2
0	853	408.137121745533	1
0	855	408.137121745533	2
0	857	408.682328817743	1
0	859	408.682328817743	2
0	869	411.127984730146	1
0	871	411.127984730146	2
0	875	412.884420459952	1
0	877	412.884420459952	2
0	881	436.043554714379	1
0	883	436.043554714379	2
0	885	437.19046503162	1
0	887	437.19046503162	2
0	893	444.459145199137	1
0	895	444.459145199137	2
0	899	450.414875318789	1
0	901	450.414875318789	2
0	905	454.749159250611	1
0	907	454.749159250611	2
0	909	455.360630572539	1
0	911	455.360630572539	2
0	915	456.659706506309	1
0	917	456.659706506309	2
0	919	456.708548852651	1
0	921	456.708548852651	2
0	927	460.408832641336	1
0	929	460.408832641336	2
0	933	461.559928933091	1
0	935	461.559928933091	2
0	941	464.56260170659	1
0	943	464.56260170659	2
0	945	468.60467021006	1
0	947	468.60467021006	2
0	949	469.166016321219	1
0	951	469.166016321219	2
0	957	475.013341373077	1
0	959	475.013341373077	2
0	963	476.677450297354	1
0	965	476.677450297354	2
0	967	478.36501216511	1
0	969	478.36501216511	2
0	973	482.618529158505	1
0	975	482.618529158505	2
0	977	482.748556545618	1
0	979	482.748556545618	2
0	987	485.265496782524	1
0	989	485.265496782524	2
0	993	485.75428086247	1
0	995	485.75428086247	2
0	997	487.358309921134	1
0	999	487.358309921134	2
0	1001	492.156136620827	1
0	1003	492.156136620827	2
0	1005	492.174699026854	1
0	1007	492.174699026854	2
0	1013	492.825368075816	1
0	1015	492.825368075816	2
0	1023	495.655868215224	1
0	1025	495.655868215224	2
0	1029	498.570200402043	1
0	1031	498.570200402043	2
0	1035	498.77451553003	1
0	1037	498.77451553003	2
0	1043	505.289449436772	1
0	1045	505.289449436772	2
0	1049	507.858126964046	1
0	1051	507.858126964046	2
0	1053	510.712039266333	1
0	1055	510.712039266333	2
0	1059	513.43323132485	1
0	1061	513.43323132485	2
0	1065	514.798512158468	1
0	1067	514.798512158468	2
0	1069	515.255510134535	1
0	1071	515.255510134535	2
0	1077	517.780485182905	1
0	1079	517.780485182905	2
0	1081	518.065773743376	1
0	1083	518.065773743376	2
0	1087	519.367730543427	1
0	1089	519.367730543427	2
0	1097	521.85084035897	1
0	1099	521.85084035897	2
0	1103	527.840021201659	1
0	1105	527.840021201659	2
0	1107	529.392515840326	1
0	1109	529.392515840326	2
0	1113	530.23845974591	1
0	1115	530.23845974591	2
0	1121	534.350758846725	1
0	1123	534.350758846725	2
0	1125	535.020602800443	1
0	1127	535.020602800443	2
0	1129	535.446969468126	1
0	1131	535.446969468126	2
0	1133	535.586244424128	1
0	1135	535.586244424128	2
0	1143	541.97607049955	1
0	1145	541.97607049955	2
0	1151	548.692968381664	1
0	1153	548.692968381664	2
0	1157	549.911265098437	1
0	1159	549.911265098437	2
0	1161	551.151050971714	1
0	1163	551.151050971714	2
0	1165	551.522085026599	1
0	1167	551.522085026599	2
0	1171	552.471651141913	1
0	1173	552.471651141913	2
0	1181	565.203314748356	1
0	1183	565.203314748356	2
0	1185	568.447703794844	1
0	1187	568.447703794844	2
0	1191	569.450509219113	1
0	1193	569.450509219113	2
0	1197	574.925466322652	1
0	1199	574.925466322652	2
0	1205	585.739825674099	1
0	1207	585.739825674099	2
0	1209	586.0235273201	1
0	1211	586.0235273201	2
0	1213	586.442847660888	1
0	1215	586.442847660888	2
0	1219	587.883748857078	1
0	1221	587.883748857078	2
0	1223	590.92936902158	1
0	1225	590.92936902158	2
0	1227	591.216809001538	1
0	1229	591.216809001538	2
0	1231	591.641623187625	1
0	1233	591.641623187625	2
0	1241	593.901987630508	1
0	1243	593.901987630508	2
0	1245	594.337828111061	1
0	1247	594.337828111061	2
0	1249	595.310045335449	1
0	1251	595.310045335449	2
0	1253	595.323881899517	1
0	1255	595.323881899517	2
0	1265	597.01718458575	1
0	1267	597.01718458575	2
0	1269	597.814891776068	1
0	1271	597.814891776068	2
0	1273	597.820711915682	1
0	1275	597.820711915682	2
0	1283	602.914767246797	1
0	1285	602.914767246797	2
0	1295	605.797031481574	1
0	1297	605.797031481574	2
0	1301	611.316611851138	1
0	1303	611.316611851138	2
0	1307	612.431007082186	1
0	1309	612.431007082186	2
0	1311	617.965089450258	1
0	1313	617.965089450258	2
0	1317	618.623156888031	1
0	1319	618.623156888031	2
0	1323	620.783304000607	1
0	1325	620.783304000607	2
0	1329	623.120452756058	1
0	1331	623.120452756058	2
0	1335	624.327876412199	1
0	1337	624.327876412199	2
0	1341	627.056556556049	1
0	1343	627.056556556049	2
0	1345	628.454185074689	1
0	1347	628.454185074689	2
0	1353	632.723797360961	1
0	1355	632.723797360961	2
0	1361	637.126893663248	1
0	1363	637.126893663248	2
0	1365	639.784555044664	1
0	1367	639.784555044664	2
0	1371	640.589837539554	1
0	1373	640.589837539554	2
0	1377	643.363201936575	1
0	1379	643.363201936575	2
0	1385	646.233812431205	1
0	1387	646.233812431205	2
0	1391	653.901769261606	1
0	1393	653.901769261606	2
0	1397	664.260471116409	1
0	1399	664.260471116409	2
0	1403	666.887898457716	1
0	1405	666.887898457716	2
0	1409	681.864667448264	1
0	1411	681.864667448264	2
0	1415	684.40997176323	1
0	1417	684.40997176323	2
0	1419	684.551068326603	1
0	1421	684.551068326603	2
0	1425	685.832202696618	1
0	1427	685.832202696618	2
0	1433	690.228520336063	1
0	1435	690.228520336063	2
0	1439	693.461083031474	1
0	1441	693.461083031474	2
0	1443	693.668805930716	1
0	1445	693.668805930716	2
0	1449	698.892852263225	1
0	1451	698.892852263225	2
0	1453	699.73836545946	1
0	1455	699.73836545946	2
0	1457	700.200999720531	1
0	1459	700.200999720531	2
0	1465	702.104281272336	1
0	1467	702.104281272336	2
0	1469	702.412976106836	1
0	1471	702.412976106836	2
0	1473	703.202756345923	1
0	1475	703.202756345923	2
0	1483	708.452163541989	1
0	1485	708.452163541989	2
0	1491	715.825426728976	1
0	1493	715.825426728976	2
0	1495	717.764165430579	1
0	1497	717.764165430579	2
0	1505	723.079099430314	1
0	1507	723.079099430314	2
0	1509	724.007697906699	1
0	1511	724.007697906699	2
0	1513	724.346441693799	1
0	1515	724.346441693799	2
0	1517	724.904480287883	1
0	1519	724.904480287883	2
0	1527	727.409963958872	1
0	1529	727.409963958872	2
0	1533	729.265858182682	1
0	1535	729.265858182682	2
0	1541	739.600037603133	1
0	1543	739.600037603133	2
0	1545	740.57660028677	1
0	1547	740.57660028677	2
0	1551	744.030016202707	1
0	1553	744.030016202707	2
0	1555	744.338443692216	1
0	1557	744.338443692216	2
0	1559	748.361583647272	1
0	1561	748.361583647272	2
0	1571	758.907141848755	1
0	1573	758.907141848755	2
0	1577	764.128631227847	1
0	1579	764.128631227847	2
0	1583	776.188773991142	1
0	1585	776.188773991142	2
0	1589	780.435431701976	1
0	1591	780.435431701976	2
0	1595	782.941078638931	1
0	1597	782.941078638931	2
0	1601	786.178173254182	1
0	1603	786.178173254182	2
0	1607	789.902224529962	1
0	1609	789.902224529962	2
0	1613	796.579147927911	1
0	1615	796.579147927911	2
0	1619	800.902044809528	1
0	1621	800.902044809528	2
0	1625	805.966021185403	1
0	1627	805.966021185403	2
0	1631	808.463808175798	1
0	1633	808.463808175798	2
0	1635	808.895208692144	1
0	1637	808.895208692144	2
0	1641	812.238866041482	1
0	1643	812.238866041482	2
0	1647	821.26256217101	1
0	1649	821.26256217101	2
0	1651	822.454802582192	1
0	1653	822.454802582192	2
0	1657	825.533386018829	1
0	1659	825.533386018829	2
0	1663	826.420767827386	1
0	1665	826.420767827386	2
0	1671	828.586286861196	1
0	1673	828.586286861196	2
0	1675	830.681678603645	1
0	1677	830.681678603645	2
0	1681	830.90922415867	1
0	1683	830.90922415867	2
0	1687	834.04381228261	1
0	1689	834.04381228261	2
0	1697	844.630088711685	1
0	1699	844.630088711685	2
0	1703	848.955139955156	1
0	1705	848.955139955156	2
0	1707	853.428392563102	1
0	1709	853.428392563102	2
0	1715	863.18238805815	1
0	1717	863.18238805815	2
0	1719	867.231363399306	1
0	1721	867.231363399306	2
0	1727	869.637289581969	1
0	1729	869.637289581969	2
0	1733	872.189792205686	1
0	1735	872.189792205686	2
0	1737	876.506235469001	1
0	1739	876.506235469001	2
0	1745	880.640109566771	1
0	1747	880.640109566771	2
0	1751	882.647153709326	1
0	1753	882.647153709326	2
0	1757	884.382876328788	1
0	1759	884.382876328788	2
0	1763	886.167162682882	1
0	1765	886.167162682882	2
0	1767	888.490401797898	1
0	1769	888.490401797898	2
0	1775	895.39712608858	1
0	1777	895.39712608858	2
0	1781	897.793072510595	1
0	1783	897.793072510595	2
0	1785	898.128213369469	1
0	1787	898.128213369469	2
0	1791	899.735521142897	1
0	1793	899.735521142897	2
0	1795	901.592871878498	1
0	1797	901.592871878498	2
0	1801	904.84652196186	1
0	1803	904.84652196186	2
0	1805	906.142769041286	1
0	1807	906.142769041286	2
0	1817	916.479899520078	1
0	1819	916.479899520078	2
0	1821	917.955623060575	1
0	1823	917.955623060575	2
0	1827	919.894434555587	1
0	1829	919.894434555587	2
0	1833	921.009342192566	1
0	1835	921.009342192566	2
0	1839	922.270529588947	1
0	1841	922.270529588947	2
0	1843	924.777318314005	1
0	1845	924.777318314005	2
0	1849	926.952112454964	1
0	1851	926.952112454964	2
0	1857	931.486437838908	1
0	1859	931.486437838908	2
0	1865	937.543467606556	1
0	1867	937.543467606556	2
0	1871	939.137834638529	1
0	1873	939.137834638529	2
0	1877	946.64034929803	1
0	1879	946.64034929803	2
0	1883	948.551781905119	1
0	1885	948.551781905119	2
0	1889	950.030301252768	1
0	1891	950.030301252768	2
0	1893	954.688195648364	1
0	1895	954.688195648364	2
0	1897	955.496399805344	1
0	1899	955.496399805344	2
0	1901	956.707805604872	1
0	1903	956.707805604872	2
0	1907	957.223534532226	1
0	1909	957.223534532226	2
0	1913	957.950904496852	1
0	1915	957.950904496852	2
0	1921	959.381233542056	1
0	1923	959.381233542056	2
0	1925	960.076915863596	1
0	1927	960.076915863596	2
0	1935	965.959145907278	1
0	1937	965.959145907278	2
0	1939	966.016946191607	1
0	1941	966.016946191607	2
0	1947	970.368568024249	1
0	1949	970.368568024249	2
0	1951	970.505089529639	1
0	1953	970.505089529639	2
0	1961	975.722184296278	1
0	1963	975.722184296278	2
0	1967	979.601928039591	1
0	1969	979.601928039591	2
0	1971	979.606477150866	1
0	1973	979.606477150866	2
0	1975	979.75976507876	1
0	1977	979.75976507876	2
0	1981	981.052645901982	1
0	1983	981.052645901982	2
0	1987	981.626318143587	1
0	1989	981.626318143587	2
0	1993	982.963721973718	1
0	1995	982.963721973718	2
0	2003	987.031383123211	1
0	2005	987.031383123211	2
0	2009	989.105226039561	1
0	2011	989.105226039561	2
0	2015	992.94467894849	1
0	2017	992.94467894849	2
0	2019	994.738221527584	1
0	2021	994.738221527584	2
0	2023	998.106290844309	1
0	2025	998.106290844309	2
1	299	101.338150892282	8.263715091294
1	305	107.032328714768	13.371795792279
1	311	107.821748422506	6.483597530224
1	317	113.105893043003	6.073564328235
1	321	114.126185230521	6.304436808015
1	329	123.252660890966	10.146767847963
1	333	124.506610302998	10.380425072477
1	341	126.707283282551	3.454622391585
1	345	134.387920529434	9.881310226436
1	349	134.420180276533	7.712896993982
1	355	135.816637906525	1.428717377091
1	365	140.377959516987	5.957779240454
1	369	142.473874447187	6.657236540662
1	373	142.657649656115	2.279690139128
1	381	143.424738920785	0.950864473598
1	389	152.885600138177	10.227950482062
1	395	153.425322267394	10.000583346609
1	399	154.746075625554	1.860475487377
1	407	166.03058783945	12.605265572056
1	411	167.831688538238	13.085612912684
1	415	171.13190438652	5.10131654707
1	423	172.630027884287	4.798339346049
1	431	175.778214862679	4.646310476159
1	437	179.652840945396	7.022813061109
1	443	186.978353938898	11.200139076219
1	449	187.924760979084	8.271920033688
1	453	189.420267681391	2.441913742493
1	459	192.790725646079	4.865964666995
1	463	194.803086827576	5.382819146185
1	471	197.032600561955	4.241874915876
1	475	198.239851196097	3.436764368521
1	485	207.821721041114	10.789120479159
1	489	208.608425207813	10.368574011716
1	497	212.90778482789	5.086063786776
1	503	213.427767637103	4.81934242929
1	509	225.260546652791	12.352761824901
1	513	226.125071133327	12.697303496224
1	517	226.642336947767	1.381790294976
1	525	228.974713327315	2.849642193988
1	531	229.457244097247	2.81490714948
1	537	232.281120447132	3.306407119817
1	543	234.800937979497	5.34369388225
1	551	240.449319282524	8.168198835392
1	555	240.502290422179	5.701352442682
1	559	241.864595076337	1.415275793813
1	565	244.784806769862	4.282516347683
1	571	245.5671586087	3.702563532363
1	577	247.439536206751	2.654729436889
1	581	249.670513781492	4.103355172792
1	589	253.10735084383	5.667814637079
1	593	253.506764707566	3.836250926074
1	601	255.005511672641	1.898160828811
1	605	255.446670978187	1.939906270621
1	611	257.321650956724	2.316139284083
1	621	259.414723060414	3.968052082227
1	625	259.840566910692	2.518915953968
1	635	268.05906462537	8.644341564956
1	641	270.802274282531	10.961707371839
1	647	273.224006920447	5.164942295077
1	653	283.216634392818	12.414360110287
1	657	283.712220738347	10.4882138179
1	661	285.268082465097	2.051448072279
1	669	287.707730776496	3.995510038149
1	673	288.743285061966	3.475202596869
1	681	291.98191107056	4.274180294064
1	687	294.606493999484	5.863208937518
1	695	304.051328210714	12.069417140154
1	699	307.293494662044	12.68700066256
1	707	322.042867535843	17.991539325129
1	713	323.813261130098	16.519766468054
1	717	323.966809241469	1.923941705626
1	721	324.359717009485	0.546455879387
1	725	325.831685041136	1.864875799667
1	733	328.007348573639	3.647631564154
1	739	329.557748854858	3.726063813722
1	749	335.12484036429	7.117491790651
1	755	349.715170818027	20.157421963169
1	761	351.449644488294	16.324804124004
1	767	359.834700795258	10.119529977231
1	773	367.246218533445	15.796574045151
1	777	367.532288357618	7.69758756236
1	781	367.808963920655	0.56274538721
1	789	371.862890078783	4.330601721165
1	793	371.989656335254	4.180692414599
1	797	375.43488568995	3.571995611167
1	809	384.854390757754	12.8647344225
1	813	386.643541510528	11.208655820578
1	817	388.152054207872	3.297663450118
1	825	391.668238793259	5.024697282731
1	833	395.266081206103	7.114026998231
1	839	398.055756963125	6.387518169866
1	845	406.669256806922	11.403175600819
1	849	408.057304509756	10.001547546631
1	853	408.137121745533	1.467864938611
1	857	408.682328817743	0.625024307987
1	869	411.127984730146	2.990862984613
1	875	412.884420459952	4.202091642209
1	881	436.043554714379	24.915569984233
1	885	437.19046503162	24.306044571668
1	893	444.459145199137	8.415590484758
1	899	450.414875318789	13.224410287169
1	905	454.749159250611	10.290014051474
1	909	455.360630572539	4.94575525375
1	915	456.659706506309	1.910547255698
1	919	456.708548852651	1.347918280112
1	927	460.408832641336	3.749126135027
1	933	461.559928933091	4.85138008044
1	941	464.56260170659	4.153769065254
1	945	468.60467021006	7.044741276969
1	949	469.166016321219	4.603414614629
1	957	475.013341373077	6.408671163017
1	963	476.677450297354	7.511433976135
1	967	478.36501216511	3.351670792033
1	973	482.618529158505	5.941078861151
1	977	482.748556545618	4.383544380508
1	987	485.265496782524	2.646967624019
1	993	485.75428086247	3.005724316852
1	997	487.358309921134	2.09281313861
1	1001	492.156136620827	6.401855758357
1	1005	492.174699026854	4.81638910572
1	1013	492.825368075816	0.669231454989
1	1023	495.655868215224	3.48116918837
1	1029	498.570200402043	5.744832326227
1	1035	498.77451553003	3.118647314806
1	1043	505.289449436772	6.719249034729
1	1049	507.858126964046	9.083611434016
1	1053	510.712039266333	5.422589829561
1	1059	513.43323132485	5.575104360804
1	1065	514.798512158468	4.086472892135
1	1069	515.255510134535	1.822278809685
1	1077	517.780485182905	2.981973024437
1	1081	518.065773743376	2.810263608841
1	1087	519.367730543427	1.587245360522
1	1097	521.85084035897	3.785066615594
1	1103	527.840021201659	8.472290658232
1	1107	529.392515840326	7.541675481356
1	1113	530.23845974591	2.398438544251
1	1121	534.350758846725	4.958243006399
1	1125	535.020602800443	4.782143054533
1	1129	535.446969468126	1.096210621401
1	1133	535.586244424128	0.565641623685
1	1143	541.97607049955	6.529101031424
1	1151	548.692968381664	13.106723957536
1	1157	549.911265098437	7.935194598887
1	1161	551.151050971714	2.45808259005
1	1165	551.522085026599	1.610819928162
1	1171	552.471651141913	1.320600170199
1	1181	565.203314748356	13.681229721757
1	1185	568.447703794844	15.976052652931
1	1191	569.450509219113	4.247194470757
1	1197	574.925466322652	6.477762527808
1	1205	585.739825674099	16.289316454986
1	1209	586.0235273201	11.098060997448
1	1213	586.442847660888	0.703021986789
1	1219	587.883748857078	1.860221536978
1	1223	590.92936902158	4.486521360692
1	1227	591.216809001538	3.33306014446
1	1231	591.641623187625	0.712254166045
1	1241	593.901987630508	2.68517862897
1	1245	594.337828111061	2.696204923436
1	1249	595.310045335449	1.408057704941
1	1253	595.323881899517	0.986053788456
1	1265	597.01718458575	1.707139250301
1	1269	597.814891776068	2.491009876551
1	1273	597.820711915682	0.803527329932
1	1283	602.914767246797	5.099875470729
1	1295	605.797031481574	7.976319565892
1	1301	611.316611851138	8.401844604341
1	1307	612.431007082186	6.633975600612
1	1311	617.965089450258	6.64847759912
1	1317	618.623156888031	6.192149805845
1	1323	620.783304000607	2.818214550349
1	1329	623.120452756058	4.497295868027
1	1335	624.327876412199	3.544572411592
1	1341	627.056556556049	3.936103799991
1	1345	628.454185074689	4.12630866249
1	1353	632.723797360961	5.667240804912
1	1361	637.126893663248	8.672708588559
1	1365	639.784555044664	7.060757683703
1	1371	640.589837539554	3.462943876306
1	1377	643.363201936575	3.578646891911
1	1385	646.233812431205	5.643974891651
1	1391	653.901769261606	10.538567325031
1	1397	664.260471116409	18.026658685204
1	1403	666.887898457716	12.98612919611
1	1409	681.864667448264	17.604196331855
1	1415	684.40997176323	17.522073305514
1	1419	684.551068326603	2.686400878339
1	1425	685.832202696618	1.422230933388
1	1433	690.228520336063	5.67745200946
1	1439	693.461083031474	7.628880334856
1	1443	693.668805930716	3.440285594653
1	1449	698.892852263225	5.431769231751
1	1453	699.73836545946	6.069559528744
1	1457	700.200999720531	1.308147457306
1	1465	702.104281272336	2.365915812876
1	1469	702.412976106836	2.211976386305
1	1473	703.202756345923	1.098475073587
1	1483	708.452163541989	6.039187435153
1	1491	715.825426728976	12.622670383053
1	1495	717.764165430579	9.31200188859
1	1505	723.079099430314	7.253672701338
1	1509	724.007697906699	6.24353247612
1	1513	724.346441693799	1.267342263485
1	1517	724.904480287883	0.896782381184
1	1527	727.409963958872	3.063522265073
1	1533	729.265858182682	4.361377894799
1	1541	739.600037603133	12.190073644261
1	1545	740.57660028677	11.310742104088
1	1551	744.030016202707	4.429978599574
1	1555	744.338443692216	3.761843405446
1	1559	748.361583647272	4.331567444565
1	1571	758.907141848755	14.568698156539
1	1577	764.128631227847	15.767047580575
1	1583	776.188773991142	17.281632142387
1	1589	780.435431701976	16.306800474129
1	1595	782.941078638931	6.752304647789
1	1601	786.178173254182	5.742741552206
1	1607	789.902224529962	6.961145891031
1	1613	796.579147927911	10.400974673729
1	1619	800.902044809528	10.999820279566
1	1625	805.966021185403	9.386873257492
1	1631	808.463808175798	7.56176336627
1	1635	808.895208692144	2.929187506741
1	1641	812.238866041482	3.775057865684
1	1647	821.26256217101	12.367353478866
1	1651	822.454802582192	10.21593654071
1	1657	825.533386018829	4.270823847819
1	1663	826.420767827386	3.965965245194
1	1671	828.586286861196	3.052900842367
1	1675	830.681678603645	4.260910776259
1	1681	830.90922415867	2.322937297474
1	1687	834.04381228261	3.362133678965
1	1697	844.630088711685	13.720864553015
1	1703	848.955139955156	14.911327672546
1	1707	853.428392563102	8.798303851417
1	1715	863.18238805815	14.227248102994
1	1719	867.231363399306	13.802970836204
1	1727	869.637289581969	6.454901523819
1	1733	872.189792205686	4.95842880638
1	1737	876.506235469001	6.868945887032
1	1745	880.640109566771	8.450317361085
1	1751	882.647153709326	6.140918240325
1	1757	884.382876328788	3.742766762017
1	1763	886.167162682882	3.520008973556
1	1767	888.490401797898	4.10752546911
1	1775	895.39712608858	9.229963405698
1	1781	897.793072510595	9.302670712697
1	1785	898.128213369469	2.731087280889
1	1791	899.735521142897	1.942448632302
1	1795	901.592871878498	3.464658509029
1	1801	904.84652196186	5.111000818963
1	1805	906.142769041286	4.549897162788
1	1817	916.479899520078	11.633377558218
1	1821	917.955623060575	11.812854019289
1	1827	919.894434555587	3.414535035509
1	1833	921.009342192566	3.053719131991
1	1839	922.270529588947	2.37609503336
1	1843	924.777318314005	3.767976121439
1	1849	926.952112454964	4.681582866017
1	1857	931.486437838908	6.709119524903
1	1865	937.543467606556	10.591355151592
1	1871	939.137834638529	7.651396799621
1	1877	946.64034929803	9.096881691474
1	1883	948.551781905119	9.41394726659
1	1889	950.030301252768	3.389951954738
1	1893	954.688195648364	6.136413743245
1	1897	955.496399805344	5.466098552576
1	1901	956.707805604872	2.019609956508
1	1907	957.223534532226	1.727134726882
1	1913	957.950904496852	1.24309889198
1	1921	959.381233542056	2.15769900983
1	1925	960.076915863596	2.126011366744
1	1935	965.959145907278	6.577912365222
1	1939	966.016946191607	5.940030328011
1	1947	970.368568024249	4.409422116971
1	1951	970.505089529639	4.488143338032
1	1961	975.722184296278	5.353616272029
1	1967	979.601928039591	9.096838509952
1	1971	979.606477150866	3.884292854588
1	1975	979.75976507876	0.157837039169
1	1981	981.052645901982	1.446168751116
1	1987	981.626318143587	1.866553064827
1	1993	982.963721973718	1.911076071736
1	2003	987.031383123211	5.405064979624
1	2009	989.105226039561	6.141504065843
1	2015	992.94467894849	5.913295825279
1	2019	994.738221527584	5.632995488023
1	2023	998.106290844309	5.161611895819
2	300	101.338150892282	6
2	304	106.641777653594	7
2	306	107.032328714768	6
2	310	107.121100242605	7
2	312	107.821748422506	6
2	316	109.306479720522	7
2	318	113.105893043003	6
2	322	114.126185230521	5
2	326	114.830663030408	6
2	328	116.332064557041	7
2	330	123.252660890966	6
2	334	124.506610302998	5
2	338	124.925877138921	6
2	340	125.28964038289	7
2	342	126.707283282551	6
2	346	134.387920529434	5
2	350	134.420180276533	4
2	354	134.591801073618	5
2	356	135.816637906525	4
2	360	137.017572577763	5
2	362	138.424679199065	6
2	364	139.185572257408	7
2	366	140.377959516987	6
2	370	142.473874447187	5
2	374	142.657649656115	4
2	378	142.918657808376	5
2	380	143.13373454268	6
2	382	143.424738920785	5
2	386	149.637417180756	6
2	388	149.883724698253	7
2	390	152.885600138177	6
2	394	152.93306218493	7
2	396	153.425322267394	6
2	400	154.746075625554	5
2	404	158.188272913483	6
2	406	159.131592960351	7
2	408	166.03058783945	6
2	412	167.831688538238	5
2	416	171.13190438652	4
2	420	172.091748348393	5
2	422	172.198789307953	6
2	424	172.630027884287	5
2	428	173.439087302011	6
2	430	175.266438225831	7
2	432	175.778214862679	6
2	436	176.893666938102	7
2	438	179.652840945396	6
2	442	183.425418054091	7
2	444	186.978353938898	6
2	448	187.237432134948	7
2	450	187.924760979084	6
2	454	189.420267681391	5
2	458	191.301044850938	6
2	460	192.790725646079	5
2	464	194.803086827576	4
2	468	195.287157380169	5
2	470	196.33244078335	6
2	472	197.032600561955	5
2	476	198.239851196097	4
2	480	198.340131895789	5
2	482	198.985974090814	6
2	484	199.415606564608	7
2	486	207.821721041114	6
2	490	208.608425207813	5
2	494	208.666313688501	6
2	496	212.507812286989	7
2	498	212.90778482789	6
2	502	213.10661377668	7
2	504	213.427767637103	6
2	508	215.241734377975	7
2	510	225.260546652791	6
2	514	226.125071133327	5
2	518	226.642336947767	4
2	522	226.979052141729	5
2	524	227.266948573296	6
2	526	228.974713327315	5
2	530	229.197324012495	6
2	532	229.457244097247	5
2	536	231.531915453072	6
2	538	232.281120447132	5
2	542	234.456152337635	6
2	544	234.800937979497	5
2	548	237.331627827683	6
2	550	239.139919046992	7
2	552	240.449319282524	6
2	556	240.502290422179	5
2	560	241.864595076337	4
2	564	243.932919356894	5
2	566	244.784806769862	4
2	570	245.035445138769	5
2	572	245.5671586087	4
2	576	245.869257194384	5
2	578	247.439536206751	4
2	582	249.670513781492	3
2	586	251.185258733467	4
2	588	251.712080258472	5
2	590	253.10735084383	4