version 3
run General-6-20221103-10:28:21-6760
attr configname General
attr datetime 20221103-10:28:21
attr datetimef 20221103-102821
attr experiment General
attr inifile block.ini
attr iterationvars "$0=2, $1=20"
attr iterationvarsd 2/20
attr iterationvarsf 2,20-
attr measurement "$0=2, $1=20"
attr network Block
attr processid 6760
attr repetition 1
attr replication #1
attr resultdir results
attr runnumber 6
attr seedset 6
config network Block
config repeat 5
config sim-time-limit 1000s
config warmup-period 100s
config **.alloca.resourceModuleName "\"risorse\""
config **.dealloca.resourceModuleName "\"risorse\""
config **.is.delay exponential(3s)
config **.servente.serviceTime exponential(2s)
config **.dealloca.resourceAmount 2
config **.alloca.resourceAmount 2
config **.risorse.amount 6
config **.sorgente.numJobs (20)
config **.result-recording-modes all

vector 0 Block.is delayedJobs:vector ETV
attr interpolationmode sample-hold
attr recordingmode vector
attr title "number of delayed jobs"
vector 1 Block.alloca queueLength:vector ETV
attr interpolationmode sample-hold
attr recordingmode vector
attr title "queue length"
vector 2 Block.servente queueLength:vector ETV
attr interpolationmode sample-hold
attr recordingmode vector
attr title "queue length"
vector 3 Block.servente queueingTime:vector ETV
attr interpolationmode none
attr recordingmode vector
attr title "queueing time at dequeue"
attr unit s
vector 4 Block.alloca queueingTime:vector ETV
attr interpolationmode none
attr recordingmode vector
attr title "queueing time at dequeue"
attr unit s
vector 5 Block.risorse amount:vector ETV
attr interpolationmode sample-hold
attr recordingmode vector
attr title "available resource"
0	379	101.770032684903	1
0	384	102.853808043157	2
0	388	104.160524066688	3
0	392	105.236573929218	4
0	393	105.744037699375	3
0	398	105.815643321462	4
0	399	106.099938232976	3
0	401	106.347604329323	2
0	403	106.789906380936	1
0	405	109.87867816916	0
0	410	111.662621429572	1
0	411	116.907571403935	0
0	416	119.822309902504	1
0	420	121.427586043131	2
0	421	121.877514886552	1
0	426	123.02405217679	2
0	427	123.271046252884	1
0	432	124.270961029226	2
0	433	124.452878758106	1
0	438	125.2448027961	2
0	439	125.886854313962	1
0	444	126.291636488173	2
0	445	126.664355019788	1
0	450	126.963000361541	2
0	454	126.964706049273	3
0	455	127.446238990046	2
0	460	128.105191589741	3
0	461	128.521098615845	2
0	466	129.875437338316	3
0	467	130.410983257956	2
0	472	131.355000033162	3
0	473	131.545013282543	2
0	478	133.64129082181	3
0	482	133.825958637985	4
0	483	133.952726133144	3
0	485	134.054200098862	2
0	487	134.489292628283	1
0	489	134.510800573334	0
0	494	135.809109736831	1
0	498	138.832535379201	2
0	499	139.03808016798	1
0	504	139.270495083075	2
0	508	140.585462144184	3
0	509	141.428600109801	2
0	514	141.529670967067	3
0	518	141.627384658353	4
0	519	141.837907880303	3
0	524	142.387790476585	4
0	528	144.48272013988	5
0	529	144.766186597564	4
0	534	145.075253461972	5
0	535	145.165802901556	4
0	537	145.371430204622	3
0	539	145.448655952609	2
0	544	146.282807416023	3
0	548	146.562257967403	4
0	549	147.137195833491	3
0	551	147.209311759191	2
0	553	147.248698968447	1
0	555	150.001092718115	0
0	560	150.802241789779	1
0	561	152.824439730703	0
0	566	160.252833546873	1
0	567	160.364719847498	0
0	572	160.453247181799	1
0	573	161.59002450386	0
0	578	163.48641976459	1
0	582	164.253634573574	2
0	586	165.398287626261	3
0	587	166.706139530526	2
0	592	167.5670636154	3
0	593	167.771942817017	2
0	598	168.346193791614	3
0	602	168.395827508011	4
0	603	168.942829077024	3
0	605	169.366171682465	2
0	607	169.45040881342	1
0	612	170.817098341437	2
0	613	171.219950542757	1
0	615	173.629710252296	0
0	620	174.00427651324	1
0	624	174.266184849809	2
0	625	175.199401369037	1
0	627	176.486240226917	0
0	632	178.072385750366	1
0	633	182.547816182455	0
0	638	182.824214899579	1
0	642	183.265314514842	2
0	643	183.41739661221	1
0	648	183.447572116682	2
0	649	186.25702428629	1
0	654	187.493866699329	2
0	655	187.62180290016	1
0	657	187.852438827712	0
0	662	190.865833346601	1
0	666	191.590309268317	2
0	670	191.64229179452	3
0	671	193.337481711643	2
0	676	194.492683578477	3
0	677	194.899415001616	2
0	682	196.52925639285	3
0	686	198.191458230253	4
0	687	199.118103510687	3
0	689	200.003211778771	2
0	691	200.253257573056	1
0	693	200.693309586618	0
0	698	202.996169994933	1
0	699	203.127187219638	0
0	704	205.254498429419	1
0	708	205.921547003267	2
0	709	205.96269917845	1
0	714	207.117205587893	2
0	715	209.513003260392	1
0	717	210.347134360968	0
0	722	216.845565291915	1
0	726	217.429233181805	2
0	727	217.788687874331	1
0	729	219.355210193169	0
0	734	221.754600101897	1
0	735	221.949099768215	0
0	740	222.599845528149	1
0	744	223.263908870561	2
0	745	225.164897818593	1
0	747	225.257502132877	0
0	752	225.682783169908	1
0	756	226.550211449209	2
0	760	226.645388169641	3
0	761	226.672038620167	2
0	763	226.75890891354	1
0	768	227.619315376864	2
0	769	228.01763273893	1
0	771	229.659886366969	0
0	776	230.741348173626	1
0	777	230.776369326448	0
0	782	235.524284607171	1
0	786	235.66717949659	2
0	787	236.495939641976	1
0	789	236.743835390818	0
0	794	241.50261210259	1
0	795	242.099127206784	0
0	800	242.159540330731	1
0	801	242.36751971446	0
0	806	245.574966309865	1
0	810	245.637663649187	2
0	811	247.173885226939	1
0	816	249.097723981024	2
0	817	249.944076115119	1
0	819	250.106921493517	0
0	824	251.576172142534	1
0	825	253.801748992322	0
0	830	255.384464039357	1
0	834	255.473667442898	2
0	835	256.267519611154	1
0	840	256.887554502665	2
0	844	257.352339415075	3
0	845	258.869615237247	2
0	850	259.97957534235	3
0	851	260.280063133917	2
0	853	261.203441638368	1
0	858	262.049695847535	2
0	859	263.36403669595	1
0	864	265.116168796093	2
0	865	265.879474101826	1
0	870	266.235924568859	2
0	874	268.22563029144	3
0	878	269.097742439763	4
0	879	270.823396916136	3
0	881	270.879093972192	2
0	886	275.240576664087	3
0	890	277.156011496392	4
0	891	277.785014295177	3
0	896	278.505072343266	4
0	897	278.563800875011	3
0	902	279.097530028911	4
0	906	279.638187790958	5
0	907	280.499471204868	4
0	909	280.819408473256	3
0	911	281.097255250334	2
0	916	281.11287044205	3
0	917	281.528711445319	2
0	919	281.94420729017	1
0	924	283.330759318988	2
0	925	284.699114190034	1
0	930	284.92647979678	2
0	931	285.596261107005	1
0	933	285.629738731401	0
0	938	285.887026809591	1
0	942	287.95260292704	2
0	943	290.250507632058	1
0	948	292.513792492603	2
0	949	292.594064095801	1
0	954	293.97262158056	2
0	955	294.860020816241	1
0	957	296.115150790185	0
0	962	298.233626603766	1
0	966	298.664147156172	2
0	967	299.124746774062	1
0	969	299.162174912762	0
0	974	302.138705755297	1
0	978	302.921825381331	2
0	979	303.775334564296	1
0	984	305.284446444548	2
0	985	306.605483456854	1
0	990	307.707573589521	2
0	991	307.858105089558	1
0	996	310.829966938019	2
0	997	311.217237264596	1
0	1002	311.302873797659	2
0	1003	311.645907594582	1
0	1008	313.44278095301	2
0	1009	317.735127648109	1
0	1014	318.344525439135	2
0	1018	318.867436675434	3
0	1022	318.985733412123	4
0	1023	319.169241130767	3
0	1028	319.671844669622	4
0	1029	319.924039179968	3
0	1034	320.84652356643	4
0	1038	320.862428672505	5
0	1039	321.352279772608	4
0	1041	321.546108984542	3
0	1043	321.804704339958	2
0	1045	323.45179331824	1
0	1050	323.816569623572	2
0	1054	324.336051667495	3
0	1055	325.208221485221	2
0	1057	325.666789681276	1
0	1059	326.200147501469	0
0	1064	326.727106465545	1
0	1068	330.252685733598	2
0	1072	331.828782417045	3
0	1073	332.313872828204	2
0	1075	332.345446110098	1
0	1080	333.227830811936	2
0	1084	333.543697289479	3
0	1085	333.817738767893	2
0	1090	335.909756943256	3
0	1094	336.470748567641	4
0	1095	336.52758423895	3
0	1097	336.739499506488	2
0	1102	337.583007443384	3
0	1106	339.609070083077	4
0	1110	339.870172016983	5
0	1111	339.913401354379	4
0	1113	340.297644262229	3
0	1115	340.555518572668	2
0	1117	340.911630066894	1
0	1119	340.948496897831	0
0	1124	346.009961572398	1
0	1125	346.316492985602	0
0	1130	347.10453034361	1
0	1134	348.298297100833	2
0	1135	348.683666770484	1
0	1137	348.732706018212	0
0	1142	348.80052882939	1
0	1146	349.113189515901	2
0	1147	349.496661691434	1
0	1152	351.84379370051	2
0	1153	353.213317290688	1
0	1155	353.668491672123	0
0	1160	355.663472237898	1
0	1161	356.024927304148	0
0	1166	356.827535084128	1
0	1170	357.431100104366	2
0	1171	357.554986966912	1
0	1176	357.635507171868	2
0	1177	357.659285410951	1
0	1182	357.762797575895	2
0	1186	358.045391494699	3
0	1187	360.843390614938	2
0	1189	361.149453448291	1
0	1194	364.227569497656	2
0	1195	365.419323540151	1
0	1200	367.319079983379	2
0	1201	367.648229071429	1
0	1206	368.094129037097	2
0	1210	369.220597706378	3
0	1211	369.908421046401	2
0	1216	370.710051347337	3
0	1220	372.373745922849	4
0	1221	372.698904928722	3
0	1223	372.967780624024	2
0	1225	373.832462923716	1
0	1227	374.395938362183	0
0	1232	375.526226683245	1
0	1236	375.75959388891	2
0	1237	376.764804317833	1
0	1242	376.961023703395	2
0	1246	378.57441391663	3
0	1247	379.413098800956	2
0	1249	381.107490462575	1
0	1251	382.486581928773	0
0	1256	383.463461125626	1
0	1257	383.730832332895	0
0	1262	388.61796636417	1
0	1266	389.92181871776	2
0	1270	390.157734751341	3
0	1271	391.784052194196	2
0	1276	392.578996234307	3
0	1277	392.703001006115	2
0	1282	393.986976893203	3
0	1286	394.210196934143	4
0	1287	394.328011821533	3
0	1289	395.873712176954	2
0	1291	398.43851242799	1
0	1296	398.484008191254	2
0	1297	398.612034278468	1
0	1302	398.622991806686	2
0	1303	398.746782753222	1
0	1308	399.770036184968	2
0	1309	400.425041225583	1
0	1314	402.123617263681	2
0	1318	402.617222102186	3
0	1322	402.899421391684	4
0	1323	403.249233783081	3
0	1325	403.753652033129	2
0	1327	404.849894559106	1
0	1332	406.429605044392	2
0	1333	406.769938763467	1
0	1338	408.042356616013	2
0	1339	408.461805713107	1
0	1344	408.550805235232	2
0	1345	409.06146704674	1
0	1347	409.284553381014	0
0	1352	410.199679506409	1
0	1353	412.072038851112	0
0	1358	413.701103805482	1
0	1359	414.856284675513	0
0	1364	418.366867279891	1
0	1368	420.343675037757	2
0	1372	423.506229369342	3
0	1373	424.963793694856	2
0	1375	425.560660832123	1
0	1380	425.901941418716	2
0	1381	426.35407331315	1
0	1386	426.976428699178	2
0	1387	427.176212989228	1
0	1392	427.536109874927	2
0	1396	429.121514302649	3
0	1397	429.815297421321	2
0	1399	433.25752032869	1
0	1404	434.298298289975	2
0	1408	436.079562624973	3
0	1409	436.843454470614	2
0	1411	436.978743493353	1
0	1416	437.30065828781	2
0	1417	437.554296162703	1
0	1419	438.272865348702	0
0	1424	438.978817408847	1
0	1428	440.104012396432	2
0	1432	440.709856256868	3
0	1436	440.877041149839	4
0	1437	441.80392251188	3
0	1439	442.00632249375	2
0	1441	443.970493147744	1
0	1443	444.276303817094	0
0	1448	446.310424739756	1
0	1452	446.831979860699	2
0	1456	446.859112593092	3
0	1460	447.952062696722	4
0	1464	448.088328761641	5
0	1465	448.429082160937	4
0	1467	448.471623043597	3
0	1472	449.567009167933	4
0	1473	450.308495225266	3
0	1478	450.54334246628	4
0	1482	451.077205732722	5
0	1483	452.137030233072	4
0	1488	452.735745229088	5
0	1489	452.748206160831	4
0	1494	453.218817052393	5
0	1495	453.321077125286	4
0	1500	453.560652348929	5
0	1501	453.634485229417	4
0	1503	455.059754033971	3
0	1505	455.156115899175	2
0	1507	455.17927525864	1
0	1512	455.575436068725	2
0	1516	456.294619418154	3
0	1517	457.41443885681	2
0	1519	458.242882116307	1
0	1521	459.428486134021	0
0	1526	460.803104535148	1
0	1530	462.908001874921	2
0	1531	464.234757541044	1
0	1533	467.126164023421	0
0	1538	467.490305133272	1
0	1542	468.020736239894	2
0	1546	468.620359137494	3
0	1547	469.296098487109	2
0	1549	471.483506286832	1
0	1554	471.537257107213	2
0	1558	472.148048743635	3
0	1559	472.647807717023	2
0	1561	473.034281001118	1
0	1566	474.173418424323	2
0	1567	476.024774447492	1
0	1572	476.210245099131	2
0	1573	476.660131122503	1
0	1578	477.616881103632	2
0	1579	478.920209690977	1
0	1581	479.088659255425	0
0	1586	480.292514502339	1
0	1587	483.311655918351	0
0	1592	483.936099206796	1
0	1596	487.131619062499	2
0	1600	488.785899366819	3
0	1601	489.198841272532	2
0	1603	490.006246524335	1
0	1605	490.295638708863	0
0	1610	494.602207217182	1
0	1611	494.880982632691	0
0	1616	494.967315859036	1
0	1620	495.607195680163	2
0	1624	495.747975792389	3
0	1625	496.881786883213	2
0	1627	496.925475054563	1
0	1632	498.030116543459	2
0	1633	498.361959541545	1
0	1638	498.382865300121	2
0	1642	499.240357064915	3
0	1646	499.601493918731	4
0	1650	500.478673610142	5
0	1651	500.927834197845	4
0	1656	501.315391002292	5
0	1660	501.92274186124	6
0	1661	502.728507830113	5
0	1663	503.550144908763	4
0	1665	504.055520021636	3
0	1667	504.154831187367	2
0	1669	504.36630050627	1
0	1671	504.653404514068	0
0	1676	508.317403715189	1
0	1677	510.989976402498	0
0	1682	512.105019225573	1
0	1686	513.795234344224	2
0	1690	513.816349193584	3
0	1691	513.956939075367	2
0	1693	514.629887873682	1
0	1698	515.436828666526	2
0	1699	516.642682974856	1
0	1704	524.617188128243	2
0	1708	528.475235767936	3
0	1712	529.163805187926	4
0	1713	529.358136087883	3
0	1715	529.45954756799	2
0	1717	529.539094926808	1
0	1719	530.234467565561	0
0	1724	530.486356831689	1
0	1728	531.556375764875	2
0	1729	531.635663470526	1
0	1734	532.707572662517	2
0	1738	532.801376772187	3
0	1739	533.782038340019	2
0	1744	533.806667755395	3
0	1748	534.979164682398	4
0	1752	535.320519101114	5
0	1756	535.715086581996	6
0	1757	535.817058898133	5
0	1759	536.134799962564	4
0	1761	536.730930564622	3
0	1763	536.881424375219	2
0	1765	537.719154087708	1
0	1770	539.591578918339	2
0	1774	540.154855728549	3
0	1775	540.50150977815	2
0	1780	541.70180651551	3
0	1784	542.241434406746	4
0	1788	542.344923796016	5
0	1789	542.969140000064	4
0	1791	544.014378403161	3
0	1793	545.33141185222	2
0	1795	548.289979422645	1
0	1800	549.024730317064	2
0	1801	549.189766819552	1
0	1803	550.543319271449	0
0	1808	553.856543530605	1
0	1809	554.006972550139	0
0	1814	554.736306464873	1
0	1818	554.979251115622	2
0	1819	554.990519067292	1
0	1824	556.067148676158	2
0	1828	556.470997313524	3
0	1829	556.77647619552	2
0	1831	557.268248140471	1
0	1836	558.527480378271	2
0	1840	561.476837810559	3
0	1841	563.732595850891	2
0	1846	564.341663580903	3
0	1850	564.476115951283	4
0	1851	564.621932312284	3
0	1853	564.915704547193	2
0	1855	565.599661640758	1
0	1857	566.400041674943	0
0	1862	566.423275519645	1
0	1866	567.714281411618	2
0	1867	568.101208594519	1
0	1872	569.573244917723	2
0	1876	570.699356326359	3
0	1877	572.589889143632	2
0	1879	573.597096453333	1
0	1884	575.295212815916	2
0	1888	575.674717236297	3
0	1889	575.924736939242	2
0	1894	576.271272035086	3
0	1898	576.72873413189	4
0	1899	577.357018863818	3
0	1901	577.625050858223	2
0	1903	578.086198748581	1
0	1905	578.2948473701	0
0	1910	579.415623177132	1
0	1914	579.805239918188	2
0	1918	580.77468942608	3
0	1922	581.521136812752	4
0	1923	582.305272014204	3
0	1925	582.375186913516	2
0	1930	584.460140501104	3
0	1934	584.461179098076	4
0	1935	586.836244662116	3
0	1937	587.021160649912	2
0	1942	587.244951855292	3
0	1943	588.014499200546	2
0	1945	588.738664180779	1
0	1947	589.275049993451	0
0	1952	591.67500433319	1
0	1956	592.7191687645	2
0	1960	594.715787781777	3
0	1961	595.060122532474	2
0	1966	598.439445914719	3
0	1967	598.896233033495	2
0	1972	599.237531790436	3
0	1976	602.022421931434	4
0	1977	602.140695770617	3
0	1982	602.800382528912	4
0	1983	602.876904207729	3
0	1985	603.175192032605	2
0	1990	603.291766477198	3
0	1991	603.879076831326	2
0	1996	606.071651623379	3
0	1997	607.163388808718	2
0	1999	607.587550215966	1
0	2004	607.811434459225	2
0	2008	607.836123580242	3
0	2012	609.284996433961	4
0	2013	611.699234753826	3
0	2015	613.616202083132	2
0	2017	616.45462096713	1
0	2022	617.475721532314	2
0	2026	619.401799914325	3
0	2030	619.841333314937	4
0	2031	620.360429984713	3
0	2033	620.402968755759	2
0	2035	622.39436138306	1
0	2040	623.156872142109	2
0	2041	623.876290261895	1
0	2046	625.64924394561	2
0	2050	625.663764065557	3
0	2051	626.078963377733	2
0	2056	628.216968055415	3
0	2057	629.811858413293	2
0	2059	629.992477819161	1
0	2061	630.464967249005	0
0	2066	630.560167430967	1
0	2070	633.524848013198	2
0	2074	634.113915464661	3
0	2078	634.285000933926	4
0	2079	635.661450738315	3
0	2081	637.441512866046	2
0	2086	637.525837352756	3
0	2090	638.072454038576	4
0	2091	638.262317052323	3
0	2096	638.628438548566	4
0	2097	638.783500079031	3
0	2102	639.234584952292	4
0	2106	639.659833630438	5
0	2107	639.752316580168	4
0	2112	640.916913429273	5
0	2113	641.021486662752	4
0	2115	641.186194109835	3
0	2120	641.510087133741	4
0	2121	643.946868829651	3
0	2123	644.167533484741	2
0	2125	646.661476668964	1
0	2130	649.33341990012	2
0	2134	649.876590761738	3
0	2135	650.478114419661	2
0	2137	651.278662484636	1
0	2142	651.518683787033	2
0	2143	651.785031062045	1
0	2148	654.203160159672	2
0	2149	656.377876257044	1
0	2154	659.147212613739	2
0	2155	660.281595397738	1
0	2160	660.959691366546	2
0	2164	661.16366421938	3
0	2165	662.556273344192	2
0	2167	662.599370941506	1
0	2172	662.741084747519	2
0	2173	663.026702298478	1
0	2175	664.632437533624	0
0	2180	666.057298950888	1
0	2181	666.756937600377	0
0	2186	670.601071550984	1
0	2190	673.015548211833	2
0	2191	673.225158724263	1
0	2196	673.356570508954	2
0	2200	673.459789272144	3
0	2201	673.490197795832	2
0	2203	673.694059968735	1
0	2205	674.475174874077	0
0	2210	675.57983966722	1
0	2214	677.342491994211	2
0	2218	678.752508234277	3
0	2222	678.842281775608	4
0	2223	679.926891894848	3
0	2228	680.03919012378	4
0	2229	680.650582342066	3
0	2234	681.794640374754	4
0	2235	682.049814856352	3
0	2240	682.210736039312	4
0	2241	682.373974576459	3
0	2243	683.115999125464	2
0	2248	684.333300074514	3
0	2252	685.220346550696	4
0	2253	685.358711663949	3
0	2258	685.440729543437	4
0	2262	685.968996059004	5
0	2266	685.985561339061	6
0	2267	686.236755496588	5
0	2269	686.596272077806	4
0	2274	687.05416915984	5
0	2278	687.114199331689	6
0	2279	687.879787828949	5
0	2281	688.292572523729	4
0	2286	689.049418736871	5
0	2287	689.657075352031	4
0	2289	690.293211670164	3
0	2294	691.444091639082	4
0	2295	691.613731230706	3
0	2300	692.463833609538	4
0	2301	692.821939354401	3
0	2303	692.927348545119	2
0	2305	694.185334613956	1
0	2310	699.584761797881	2
0	2311	700.061087498021	1
0	2316	701.397979771528	2
0	2317	701.839986407208	1
0	2322	704.745701929849	2
0	2326	705.103369478394	3
0	2327	705.286800891883	2
0	2329	705.988285276479	1
0	2334	707.212068612062	2
0	2338	707.336694986596	3
0	2342	707.448876944299	4
0	2346	708.359296359534	5
0	2347	709.315961484945	4
0	2349	710.892087102494	3
0	2354	711.120887868184	4
0	2358	711.82060869844	5
0	2359	712.216485580022	4
0	2361	712.34368016013	3
0	2363	712.799195154813	2
0	2365	713.617897495543	1
0	2367	715.265634891294	0
0	2372	715.619029589775	1
0	2376	715.800399159772	2
0	2377	716.261564740179	1
0	2379	716.618622434851	0
0	2384	718.905850028547	1
0	2388	719.62984849146	2
0	2389	719.877078681346	1
0	2394	726.047019496308	2
0	2395	726.132481593039	1
0	2400	728.576105920924	2
0	2401	728.818702728889	1
0	2403	729.927189753035	0
0	2408	730.803202720257	1
0	2412	731.659210702188	2
0	2413	731.845774103166	1
0	2418	732.000396955659	2
0	2419	732.354228257436	1
0	2421	734.128785503642	0
0	2426	734.632453805188	1
0	2427	736.567485511703	0
0	2432	742.856859679367	1
0	2436	743.002091339911	2
0	2437	743.099515294199	1
0	2439	743.110129690114	0
0	2444	747.407922211228	1
0	2448	748.43340916188	2
0	2449	750.469688501524	1
0	2454	753.032622629378	2
0	2458	753.08243043634	3
0	2462	754.645356610947	4
0	2463	755.013109901843	3
0	2465	755.199777341905	2
0	2470	756.654845768572	3
0	2474	757.429748563194	4
0	2478	758.154388034393	5
0	2479	758.348522557204	4
0	2481	758.536627172094	3
0	2483	760.815726466725	2
0	2488	761.924268402585	3
0	2492	763.937301795211	4
0	2496	764.10841397586	5
0	2497	764.765374221688	4
0	2499	765.983052490337	3
0	2504	766.766630066557	4
0	2508	767.049413351564	5
0	2509	767.603153891552	4
0	2511	768.420064121977	3
0	2513	769.649024256124	2
0	2515	770.684770346685	1
0	2520	771.447958887943	2
0	2521	772.268111471405	1
0	2526	774.064903663911	2
0	2527	774.162844451425	1
0	2532	774.39919927162	2
0	2536	775.180848362806	3
0	2537	775.545339364014	2
0	2542	775.555970066107	3
0	2543	775.631922846444	2
0	2545	775.718445486097	1
0	2547	776.044345122837	0
0	2552	779.017922450098	1
0	2553	779.180060064629	0
0	2558	784.957260755547	1
0	2562	784.97350522767	2
0	2566	785.14349916452	3
0	2567	785.63831759581	2
0	2569	785.852093865126	1
0	2574	786.366409186813	2
0	2575	787.026789862894	1
0	2580	787.873981861672	2
0	2581	788.360288741818	1
0	2586	791.706749449137	2
0	2590	792.567847734959	3
0	2594	792.97888598736	4
0	2595	792.989901127496	3
0	2600	793.641047819342	4
0	2604	793.702052227535	5
0	2608	794.379521404774	6
0	2609	794.385011386489	5
0	2611	795.713364171594	4
0	2613	796.20826838468	3
0	2618	796.629259035525	4
0	2619	797.029842977263	3
0	2621	797.481363930853	2
0	2626	798.326668751458	3
0	2627	798.377003732683	2
0	2632	800.338856450915	3
0	2633	801.923936633027	2
0	2635	803.191853102496	1
0	2637	805.516660729919	0
0	2642	807.207192893544	1
0	2643	808.075884247572	0
0	2648	808.328744739566	1
0	2649	808.336626348157	0
0	2654	808.814053394232	1
0	2658	808.859826347627	2
0	2659	809.846929387924	1
0	2664	811.114996439215	2
0	2668	811.145896596325	3
0	2672	811.463553610623	4
0	2673	811.660914498635	3
0	2675	812.769340086037	2
0	2680	812.81869706887	3
0	2684	813.118180802783	4
0	2685	813.278888434156	3
0	2687	813.476029896138	2
0	2692	814.906789416375	3
0	2696	815.386003584389	4
0	2697	816.135849782492	3
0	2699	817.208639062673	2
0	2704	818.510163080755	3
0	2708	818.688556683634	4
0	2712	819.789024972164	5
0	2716	819.942548226609	6
0	2717	820.478763411791	5
0	2722	821.089554684652	6
0	2723	821.138735824381	5
0	2725	821.591305388084	4
0	2727	821.893249174079	3
0	2729	822.581742499152	2
0	2734	823.715454184433	3
0	2735	824.13393696774	2
0	2740	824.231857557984	3
0	2744	824.492755335707	4
0	2745	824.932101679584	3
0	2747	825.838702054756	2
0	2749	826.273999211001	1
0	2751	828.05604312324	0
0	2756	831.687863280568	1
0	2760	832.95442432146	2
0	2761	833.86838793645	1
0	2763	835.91139047281	0
0	2768	838.719610595273	1
0	2772	840.653341329143	2
0	2776	840.854083419444	3
0	2780	840.900406912467	4
0	2781	841.272293218144	3
0	2783	841.789564097381	2
0	2785	844.427407068416	1
0	2787	844.609255194107	0
0	2792	845.31234418775	1
0	2793	847.044125076599	0
0	2798	847.147195423538	1
0	2802	848.600614685198	2
0	2803	850.936001565938	1
0	2805	855.22032040626	0
0	2810	856.637775606292	1
0	2811	859.08137450533	0
0	2816	862.319575578141	1
0	2820	865.054086229814	2
0	2821	865.329886110888	1
0	2826	865.583865849943	2
0	2827	866.85670510956	1
0	2829	867.333490597664	0
0	2834	871.054346503168	1
0	2838	872.294015681698	2
0	2842	874.503377803872	3
0	2843	874.85575271027	2
0	2845	875.410542946001	1
0	2850	875.741687136222	2
0	2854	875.989867499992	3
0	2858	876.284038681155	4
0	2859	876.662249254509	3
0	2861	878.093327612434	2
0	2866	879.479743952247	3
0	2867	880.526985500251	2
0	2869	881.386413021461	1
0	2871	882.894431752397	0
0	2876	887.39513366054	1
0	2877	887.688857421409	0
0	2882	888.169224441146	1
0	2886	890.331384815927	2
0	2887	891.561946961848	1
0	2892	891.729235130881	2
0	2893	891.797636371033	1
0	2895	892.015787530602	0
0	2900	893.400799310438	1
0	2901	897.064308440421	0
0	2906	898.144602767868	1
0	2910	898.241491885906	2
0	2914	899.001100399098	3
0	2915	899.368337636103	2
0	2917	900.528477547317	1
0	2922	902.43076631218	2
0	2926	903.470470426794	3
0	2927	903.526952810729	2
0	2929	904.683210524528	1
0	2934	908.696733907686	2
0	2935	909.128158683326	1
0	2940	910.564055219047	2
0	2941	910.693950511129	1
0	2946	911.48866684887	2
0	2947	912.649426073362	1
0	2952	913.13098158019	2
0	2953	913.837725374751	1
0	2958	914.14339427574	2
0	2959	916.705597476501	1
0	2961	917.40646311897	0
0	2966	919.845215632133	1
0	2970	924.266279139028	2
0	2971	924.999372189893	1
0	2976	927.74062244317	2
0	2977	928.938130079464	1
0	2979	929.383247005874	0
0	2984	930.164889644697	1
0	2985	931.093105954166	0
0	2990	933.331177744163	1
0	2994	933.664633376523	2
0	2998	934.101590005908	3
0	2999	934.279680721119	2
0	3004	934.471715968452	3
0	3008	937.071761475773	4
0	3009	937.104740283178	3
0	3011	937.150186781655	2
0	3016	937.167532506172	3
0	3017	938.607624444414	2
0	3019	938.831610094479	1
0	3024	939.289645399529	2
0	3025	940.812698097801	1
0	3030	940.833731578324	2
0	3031	941.705144570854	1
0	3033	941.927287396569	0
0	3038	951.129823173463	1
0	3042	951.209411357726	2
0	3046	952.005832532019	3
0	3047	952.023802529332	2
0	3052	952.557313014555	3
0	3053	952.939404396468	2
0	3058	953.516780951527	3
0	3059	954.155110609813	2
0	3061	956.052782282893	1
0	3066	957.666677067138	2
0	3070	958.1507918991	3
0	3071	958.167020836903	2
0	3076	958.282038312939	3
0	3077	958.430539821656	2
0	3079	958.529580869094	1
0	3084	959.5657154722	2
0	3085	960.828655279078	1
0	3087	960.896148289726	0
0	3092	962.567496972646	1
0	3093	966.016734670477	0
0	3098	968.667627725246	1
0	3099	971.52333981285	0
0	3104	972.106087642758	1
0	3108	972.193961804154	2
0	3109	972.678541466676	1
0	3111	973.269820488544	0
0	3116	977.359022237176	1
0	3120	979.375816037335	2
0	3124	980.395688914048	3
0	3125	980.829804722442	2
0	3127	981.065781259891	1
0	3129	981.133985454686	0
0	3134	988.411095115441	1
0	3138	988.617685449403	2
0	3139	988.984415661233	1
0	3144	989.812939491218	2
0	3148	989.977834075405	3
0	3152	990.615295268039	4
0	3153	990.787495914726	3
0	3155	992.409612920985	2
0	3157	992.498022375196	1
0	3159	992.751049175319	0
0	3164	995.5391096336	1
0	3165	997.014538719192	0
1	380	101.770032684903	16
1	382	102.853808043157	15
1	386	104.160524066688	14
1	390	105.236573929218	13
1	394	105.744037699375	14
1	396	105.815643321462	13
1	400	106.099938232976	14
1	402	106.347604329323	15
1	404	106.789906380936	16
1	406	109.87867816916	17
1	408	111.662621429572	16
1	412	116.907571403935	17
1	414	119.822309902504	16
1	418	121.427586043131	15
1	422	121.877514886552	16
1	424	123.02405217679	15
1	428	123.271046252884	16
1	430	124.270961029226	15
1	434	124.452878758106	16
1	436	125.2448027961	15
1	440	125.886854313962	16
1	442	126.291636488173	15
1	446	126.664355019788	16
1	448	126.963000361541	15
1	452	126.964706049273	14
1	456	127.446238990046	15
1	458	128.105191589741	14
1	462	128.521098615845	15
1	464	129.875437338316	14
1	468	130.410983257956	15
1	470	131.355000033162	14
1	474	131.545013282543	15
1	476	133.64129082181	14
1	480	133.825958637985	13
1	484	133.952726133144	14
1	486	134.054200098862	15
1	488	134.489292628283	16
1	490	134.510800573334	17
1	492	135.809109736831	16
1	496	138.832535379201	15
1	500	139.03808016798	16
1	502	139.270495083075	15
1	506	140.585462144184	14
1	510	141.428600109801	15
1	512	141.529670967067	14
1	516	141.627384658353	13
1	520	141.837907880303	14
1	522	142.387790476585	13
1	526	144.48272013988	12
1	530	144.766186597564	13
1	532	145.075253461972	12
1	536	145.165802901556	13
1	538	145.371430204622	14
1	540	145.448655952609	15
1	542	146.282807416023	14
1	546	146.562257967403	13
1	550	147.137195833491	14
1	552	147.209311759191	15
1	554	147.248698968447	16
1	556	150.001092718115	17
1	558	150.802241789779	16
1	562	152.824439730703	17
1	564	160.252833546873	16
1	568	160.364719847498	17
1	570	160.453247181799	16
1	574	161.59002450386	17
1	576	163.48641976459	16
1	580	164.253634573574	15
1	584	165.398287626261	14
1	588	166.706139530526	15
1	590	167.5670636154	14
1	594	167.771942817017	15
1	596	168.346193791614	14
1	600	168.395827508011	13
1	604	168.942829077024	14
1	606	169.366171682465	15
1	608	169.45040881342	16
1	610	170.817098341437	15
1	614	171.219950542757	16
1	616	173.629710252296	17
1	618	174.00427651324	16
1	622	174.266184849809	15
1	626	175.199401369037	16
1	628	176.486240226917	17
1	630	178.072385750366	16
1	634	182.547816182455	17
1	636	182.824214899579	16
1	640	183.265314514842	15
1	644	183.41739661221	16
1	646	183.447572116682	15
1	650	186.25702428629	16
1	652	187.493866699329	15
1	656	187.62180290016	16
1	658	187.852438827712	17
1	660	190.865833346601	16
1	664	191.590309268317	15
1	668	191.64229179452	14
1	672	193.337481711643	15
1	674	194.492683578477	14
1	678	194.899415001616	15
1	680	196.52925639285	14
1	684	198.191458230253	13
1	688	199.118103510687	14
1	690	200.003211778771	15
1	692	200.253257573056	16
1	694	200.693309586618	17
1	696	202.996169994933	16
1	700	203.127187219638	17
1	702	205.254498429419	16
1	706	205.921547003267	15
1	710	205.96269917845	16
1	712	207.117205587893	15
1	716	209.513003260392	16
1	718	210.347134360968	17
1	720	216.845565291915	16
1	724	217.429233181805	15
1	728	217.788687874331	16
1	730	219.355210193169	17
1	732	221.754600101897	16
1	736	221.949099768215	17
1	738	222.599845528149	16
1	742	223.263908870561	15
1	746	225.164897818593	16
1	748	225.257502132877	17
1	750	225.682783169908	16
1	754	226.550211449209	15
1	758	226.645388169641	14
1	762	226.672038620167	15
1	764	226.75890891354	16
1	766	227.619315376864	15
1	770	228.01763273893	16
1	772	229.659886366969	17
1	774	230.741348173626	16
1	778	230.776369326448	17
1	780	235.524284607171	16
1	784	235.66717949659	15
1	788	236.495939641976	16
1	790	236.743835390818	17
1	792	241.50261210259	16
1	796	242.099127206784	17
1	798	242.159540330731	16
1	802	242.36751971446	17
1	804	245.574966309865	16
1	808	245.637663649187	15
1	812	247.173885226939	16
1	814	249.097723981024	15
1	818	249.944076115119	16
1	820	250.106921493517	17
1	822	251.576172142534	16
1	826	253.801748992322	17
1	828	255.384464039357	16
1	832	255.473667442898	15
1	836	256.267519611154	16
1	838	256.887554502665	15
1	842	257.352339415075	14
1	846	258.869615237247	15
1	848	259.97957534235	14
1	852	260.280063133917	15
1	854	261.203441638368	16
1	856	262.049695847535	15
1	860	263.36403669595	16
1	862	265.116168796093	15
1	866	265.879474101826	16
1	868	266.235924568859	15
1	872	268.22563029144	14
1	876	269.097742439763	13
1	880	270.823396916136	14
1	882	270.879093972192	15
1	884	275.240576664087	14
1	888	277.156011496392	13
1	892	277.785014295177	14