version 3
run General-7-20221103-10:28:21-6760
attr configname General
attr datetime 20221103-10:28:21
attr datetimef 20221103-102821
attr experiment General
attr inifile block.ini
attr iterationvars "$0=2, $1=20"
attr iterationvarsd 2/20
attr iterationvarsf 2,20-
attr measurement "$0=2, $1=20"
attr network Block
attr processid 6760
attr repetition 2
attr replication #2
attr resultdir results
attr runnumber 7
attr seedset 7
config network Block
config repeat 5
config sim-time-limit 1000s
config warmup-period 100s
config **.alloca.resourceModuleName "\"risorse\""
config **.dealloca.resourceModuleName "\"risorse\""
config **.is.delay exponential(3s)
config **.servente.serviceTime exponential(2s)
config **.dealloca.resourceAmount 2
config **.alloca.resourceAmount 2
config **.risorse.amount 6
config **.sorgente.numJobs (20)
config **.result-recording-modes all

vector 0 Block.servente queueLength:vector ETV
attr interpolationmode sample-hold
attr recordingmode vector
attr title "queue length"
vector 1 Block.servente queueingTime:vector ETV
attr interpolationmode none
attr recordingmode vector
attr title "queueing time at dequeue"
attr unit s
vector 2 Block.alloca queueLength:vector ETV
attr interpolationmode sample-hold
attr recordingmode vector
attr title "queue length"
vector 3 Block.alloca queueingTime:vector ETV
attr interpolationmode none
attr recordingmode vector
attr title "queueing time at dequeue"
attr unit s
vector 4 Block.risorse amount:vector ETV
attr interpolationmode sample-hold
attr recordingmode vector
attr title "available resource"
vector 5 Block.is delayedJobs:vector ETV
attr interpolationmode sample-hold
attr recordingmode vector
attr title "number of delayed jobs"
0	357	100.300147554749	1
0	359	100.300147554749	2
0	363	102.968875997837	1
0	365	102.968875997837	2
0	367	104.313303099378	1
0	369	104.313303099378	2
0	377	110.471157515958	1
0	379	110.471157515958	2
0	381	110.805012825812	1
0	383	110.805012825812	2
0	387	112.899628270161	1
0	389	112.899628270161	2
0	395	114.529867105504	1
0	397	114.529867105504	2
0	399	118.587844259605	1
0	401	118.587844259605	2
0	403	118.897945127408	1
0	405	118.897945127408	2
0	407	120.086013044638	1
0	409	120.086013044638	2
0	413	122.239127561019	1
0	415	122.239127561019	2
0	417	124.406829872722	1
0	419	124.406829872722	2
0	431	128.054155551956	1
0	433	128.054155551956	2
0	437	129.575113821609	1
0	439	129.575113821609	2
0	441	129.656020646163	1
0	443	129.656020646163	2
0	445	129.856984080261	1
0	447	129.856984080261	2
0	453	133.064840010963	1
0	455	133.064840010963	2
0	461	134.094468774805	1
0	463	134.094468774805	2
0	467	136.388721072134	1
0	469	136.388721072134	2
0	473	137.782724232776	1
0	475	137.782724232776	2
0	477	138.794990240406	1
0	479	138.794990240406	2
0	485	141.876836349735	1
0	487	141.876836349735	2
0	491	147.922473589297	1
0	493	147.922473589297	2
0	495	148.519163304091	1
0	497	148.519163304091	2
0	501	149.986608717536	1
0	503	149.986608717536	2
0	507	154.038084961459	1
0	509	154.038084961459	2
0	513	155.268093772917	1
0	515	155.268093772917	2
0	517	155.501173830483	1
0	519	155.501173830483	2
0	525	158.710095952311	1
0	527	158.710095952311	2
0	531	160.088084015268	1
0	533	160.088084015268	2
0	535	160.527322229661	1
0	537	160.527322229661	2
0	541	164.703481485265	1
0	543	164.703481485265	2
0	547	165.32790775067	1
0	549	165.32790775067	2
0	555	165.868740363516	1
0	557	165.868740363516	2
0	559	166.801059816336	1
0	561	166.801059816336	2
0	565	167.776266777722	1
0	567	167.776266777722	2
0	569	168.307040079449	1
0	571	168.307040079449	2
0	573	168.693674176028	1
0	575	168.693674176028	2
0	577	169.710350900946	1
0	579	169.710350900946	2
0	593	173.395988835975	1
0	595	173.395988835975	2
0	597	176.486386974745	1
0	599	176.486386974745	2
0	605	178.534033420846	1
0	607	178.534033420846	2
0	611	179.904459127481	1
0	613	179.904459127481	2
0	615	181.185780394164	1
0	617	181.185780394164	2
0	619	182.471581083929	1
0	621	182.471581083929	2
0	629	188.221345231397	1
0	631	188.221345231397	2
0	633	190.898635142975	1
0	635	190.898635142975	2
0	637	190.983558902911	1
0	639	190.983558902911	2
0	643	193.819379592992	1
0	645	193.819379592992	2
0	649	195.260009418851	1
0	651	195.260009418851	2
0	655	195.653075354467	1
0	657	195.653075354467	2
0	661	196.648241266926	1
0	663	196.648241266926	2
0	671	202.261533973226	1
0	673	202.261533973226	2
0	675	202.740381116279	1
0	677	202.740381116279	2
0	683	206.096845599913	1
0	685	206.096845599913	2
0	687	207.130695890651	1
0	689	207.130695890651	2
0	691	208.897960242925	1
0	693	208.897960242925	2
0	697	209.309547336669	1
0	699	209.309547336669	2
0	705	212.655607929093	1
0	707	212.655607929093	2
0	709	214.394648425565	1
0	711	214.394648425565	2
0	715	215.579199040793	1
0	717	215.579199040793	2
0	725	218.778980391047	1
0	727	218.778980391047	2
0	729	220.350698026563	1
0	731	220.350698026563	2
0	737	221.434699791906	1
0	739	221.434699791906	2
0	741	221.473384843104	1
0	743	221.473384843104	2
0	745	223.775979326764	1
0	747	223.775979326764	2
0	751	225.115223203391	1
0	753	225.115223203391	2
0	755	225.61363279964	1
0	757	225.61363279964	2
0	761	227.213063179433	1
0	763	227.213063179433	2
0	769	228.691827029828	1
0	771	228.691827029828	2
0	775	230.02894099108	1
0	777	230.02894099108	2
0	783	230.639361201848	1
0	785	230.639361201848	2
0	787	232.137889752867	1
0	789	232.137889752867	2
0	797	240.467303137255	1
0	799	240.467303137255	2
0	803	242.420571021369	1
0	805	242.420571021369	2
0	809	244.406682037568	1
0	811	244.406682037568	2
0	815	249.221971026335	1
0	817	249.221971026335	2
0	821	255.789839240136	1
0	823	255.789839240136	2
0	827	257.549273800776	1
0	829	257.549273800776	2
0	831	257.90967599521	1
0	833	257.90967599521	2
0	835	258.903499471196	1
0	837	258.903499471196	2
0	845	264.688224472464	1
0	847	264.688224472464	2
0	851	265.529558160593	1
0	853	265.529558160593	2
0	857	267.971595141964	1
0	859	267.971595141964	2
0	863	269.214687958403	1
0	865	269.214687958403	2
0	867	270.19278586494	1
0	869	270.19278586494	2
0	873	271.696172176091	1
0	875	271.696172176091	2
0	881	275.144634677488	1
0	883	275.144634677488	2
0	887	277.179494041073	1
0	889	277.179494041073	2
0	893	281.153418933932	1
0	895	281.153418933932	2
0	899	283.178067227097	1
0	901	283.178067227097	2
0	905	297.698556068956	1
0	907	297.698556068956	2
0	909	299.157266058316	1
0	911	299.157266058316	2
0	915	299.951119316188	1
0	917	299.951119316188	2
0	919	300.159116057248	1
0	921	300.159116057248	2
0	927	301.832072516331	1
0	929	301.832072516331	2
0	931	302.316745480993	1
0	933	302.316745480993	2
0	935	302.340467178049	1
0	937	302.340467178049	2
0	943	303.051576376806	1
0	945	303.051576376806	2
0	947	303.131091128454	1
0	949	303.131091128454	2
0	955	310.608392308649	1
0	957	310.608392308649	2
0	963	312.211876329595	1
0	965	312.211876329595	2
0	967	312.360711901343	1
0	969	312.360711901343	2
0	971	313.191948309106	1
0	973	313.191948309106	2
0	975	313.748474498318	1
0	977	313.748474498318	2
0	979	313.975597765678	1
0	981	313.975597765678	2
0	985	316.917826379866	1
0	987	316.917826379866	2
0	993	317.781243992009	1
0	995	317.781243992009	2
0	999	318.196874100033	1
0	1001	318.196874100033	2
0	1011	323.072600165589	1
0	1013	323.072600165589	2
0	1019	327.021297341486	1
0	1021	327.021297341486	2
0	1025	328.039279396919	1
0	1027	328.039279396919	2
0	1031	329.620078209008	1
0	1033	329.620078209008	2
0	1035	330.81711792516	1
0	1037	330.81711792516	2
0	1041	333.182840358822	1
0	1043	333.182840358822	2
0	1045	333.664045722263	1
0	1047	333.664045722263	2
0	1051	334.446575253795	1
0	1053	334.446575253795	2
0	1061	337.139899036046	1
0	1063	337.139899036046	2
0	1065	337.543080299906	1
0	1067	337.543080299906	2
0	1073	339.924679825965	1
0	1075	339.924679825965	2
0	1077	341.420879683247	1
0	1079	341.420879683247	2
0	1081	341.863397986015	1
0	1083	341.863397986015	2
0	1091	343.965695556912	1
0	1093	343.965695556912	2
0	1095	345.391483257977	1
0	1097	345.391483257977	2
0	1101	347.727647044415	1
0	1103	347.727647044415	2
0	1109	349.431595316856	1
0	1111	349.431595316856	2
0	1115	352.371976434925	1
0	1117	352.371976434925	2
0	1119	353.370588393754	1
0	1121	353.370588393754	2
0	1127	359.739051904511	1
0	1129	359.739051904511	2
0	1133	367.377198016937	1
0	1135	367.377198016937	2
0	1137	367.84076238316	1
0	1139	367.84076238316	2
0	1143	369.133294552668	1
0	1145	369.133294552668	2
0	1149	372.256147419082	1
0	1151	372.256147419082	2
0	1153	372.529933202132	1
0	1155	372.529933202132	2
0	1163	376.038794039728	1
0	1165	376.038794039728	2
0	1167	376.580931505258	1
0	1169	376.580931505258	2
0	1175	382.226696670124	1
0	1177	382.226696670124	2
0	1179	385.663620138402	1
0	1181	385.663620138402	2
0	1183	385.76991453245	1
0	1185	385.76991453245	2
0	1187	385.773627265194	1
0	1189	385.773627265194	2
0	1191	386.163158464797	1
0	1193	386.163158464797	2
0	1197	387.709383528569	1
0	1199	387.709383528569	2
0	1207	389.253834402491	1
0	1209	389.253834402491	2
0	1215	390.687770216985	1
0	1217	390.687770216985	2
0	1219	391.242404534385	1
0	1221	391.242404534385	2
0	1223	391.254796296085	1
0	1225	391.254796296085	2
0	1231	393.958711646927	1
0	1233	393.958711646927	2
0	1237	395.153311440314	1
0	1239	395.153311440314	2
0	1245	399.307632784861	1
0	1247	399.307632784861	2
0	1251	400.286267507379	1
0	1253	400.286267507379	2
0	1255	400.294605191744	1
0	1257	400.294605191744	2
0	1259	400.61191719482	1
0	1261	400.61191719482	2
0	1263	400.686631848918	1
0	1265	400.686631848918	2
0	1269	401.322078405546	1
0	1271	401.322078405546	2
0	1273	401.931383501394	1
0	1275	401.931383501394	2
0	1283	403.810739775527	1
0	1285	403.810739775527	2
0	1289	404.131769266277	1
0	1291	404.131769266277	2
0	1293	404.597387718849	1
0	1295	404.597387718849	2
0	1297	407.152453715265	1
0	1299	407.152453715265	2
0	1303	407.775277759515	1
0	1305	407.775277759515	2
0	1307	408.184156440002	1
0	1309	408.184156440002	2
0	1323	411.509380052233	1
0	1325	411.509380052233	2
0	1327	411.700274908577	1
0	1329	411.700274908577	2
0	1331	411.978039742287	1
0	1333	411.978039742287	2
0	1339	414.254389716944	1
0	1341	414.254389716944	2
0	1345	415.448600283319	1
0	1347	415.448600283319	2
0	1349	416.436088658519	1
0	1351	416.436088658519	2
0	1359	418.604594889453	1
0	1361	418.604594889453	2
0	1363	418.6256726396	1
0	1365	418.6256726396	2
0	1369	419.231992616228	1
0	1371	419.231992616228	2
0	1375	422.022552129538	1
0	1377	422.022552129538	2
0	1385	427.567353437026	1
0	1387	427.567353437026	2
0	1391	429.819431197255	1
0	1393	429.819431197255	2
0	1395	431.199621946355	1
0	1397	431.199621946355	2
0	1401	434.18584650445	1
0	1403	434.18584650445	2
0	1407	435.850903470243	1
0	1409	435.850903470243	2
0	1411	436.575203547033	1
0	1413	436.575203547033	2
0	1417	437.88661842426	1
0	1419	437.88661842426	2
0	1423	438.64337832015	1
0	1425	438.64337832015	2
0	1427	438.720906149303	1
0	1429	438.720906149303	2
0	1437	440.403964657679	1
0	1439	440.403964657679	2
0	1445	448.907945513898	1
0	1447	448.907945513898	2
0	1449	449.842304294811	1
0	1451	449.842304294811	2
0	1455	452.119726712366	1
0	1457	452.119726712366	2
0	1459	452.380159051334	1
0	1461	452.380159051334	2
0	1463	452.574615708455	1
0	1465	452.574615708455	2
0	1469	454.579148951514	1
0	1471	454.579148951514	2
0	1473	455.238603697033	1
0	1475	455.238603697033	2
0	1481	455.871874045711	1
0	1483	455.871874045711	2
0	1493	460.290394829051	1
0	1495	460.290394829051	2
0	1497	460.745473232448	1
0	1499	460.745473232448	2
0	1501	461.433583791003	1
0	1503	461.433583791003	2
0	1509	463.018325775101	1
0	1511	463.018325775101	2
0	1515	465.537935681363	1
0	1517	465.537935681363	2
0	1521	466.999028339605	1
0	1523	466.999028339605	2
0	1529	469.644408167244	1
0	1531	469.644408167244	2
0	1533	469.765974778868	1
0	1535	469.765974778868	2
0	1537	471.53087025612	1
0	1539	471.53087025612	2
0	1543	473.279220719477	1
0	1545	473.279220719477	2
0	1549	475.25725380613	1
0	1551	475.25725380613	2
0	1557	477.769064329309	1
0	1559	477.769064329309	2
0	1563	478.326502955726	1
0	1565	478.326502955726	2
0	1569	480.915653078953	1
0	1571	480.915653078953	2
0	1575	487.959537675449	1
0	1577	487.959537675449	2
0	1579	488.908415371833	1
0	1581	488.908415371833	2
0	1583	489.28030369243	1
0	1585	489.28030369243	2
0	1587	490.156890103302	1
0	1589	490.156890103302	2
0	1599	492.013938355508	1
0	1601	492.013938355508	2
0	1605	493.669449079387	1
0	1607	493.669449079387	2
0	1609	495.626474646307	1
0	1611	495.626474646307	2
0	1615	497.979793194359	1
0	1617	497.979793194359	2
0	1621	499.110284804947	1
0	1623	499.110284804947	2
0	1629	499.506985474436	1
0	1631	499.506985474436	2
0	1637	501.42668971275	1
0	1639	501.42668971275	2
0	1641	502.526399687936	1
0	1643	502.526399687936	2
0	1647	504.52863982421	1
0	1649	504.52863982421	2
0	1653	509.218014652294	1
0	1655	509.218014652294	2
0	1659	511.046437943588	1
0	1661	511.046437943588	2
0	1663	511.547560915963	1
0	1665	511.547560915963	2
0	1669	512.000352214679	1
0	1671	512.000352214679	2
0	1677	517.27516830382	1
0	1679	517.27516830382	2
0	1685	520.898145136221	1
0	1687	520.898145136221	2
0	1689	521.965818415799	1
0	1691	521.965818415799	2
0	1695	527.31663147092	1
0	1697	527.31663147092	2
0	1701	528.014533467191	1
0	1703	528.014533467191	2
0	1705	530.255057359768	1
0	1707	530.255057359768	2
0	1713	532.781525070342	1
0	1715	532.781525070342	2
0	1717	535.116590394438	1
0	1719	535.116590394438	2
0	1721	535.731888326104	1
0	1723	535.731888326104	2
0	1733	540.002855949648	1
0	1735	540.002855949648	2
0	1739	540.638477251701	1
0	1741	540.638477251701	2
0	1745	541.284891370956	1
0	1747	541.284891370956	2
0	1751	544.983707204793	1
0	1753	544.983707204793	2
0	1757	554.331517770895	1
0	1759	554.331517770895	2
0	1763	556.686886256531	1
0	1765	556.686886256531	2
0	1767	557.125201575137	1
0	1769	557.125201575137	2
0	1771	557.265858892437	1
0	1773	557.265858892437	2
0	1777	559.295095343553	1
0	1779	559.295095343553	2
0	1787	565.874338228701	1
0	1789	565.874338228701	2
0	1793	572.500135250934	1
0	1795	572.500135250934	2
0	1797	573.492781832607	1
0	1799	573.492781832607	2
0	1803	578.284985304605	1
0	1805	578.284985304605	2
0	1807	578.823652628829	1
0	1809	578.823652628829	2
0	1815	581.221675052417	1
0	1817	581.221675052417	2
0	1819	581.761329496447	1
0	1821	581.761329496447	2
0	1823	581.78605811837	1
0	1825	581.78605811837	2
0	1831	581.922545314989	1
0	1833	581.922545314989	2
0	1839	585.761831158737	1
0	1841	585.761831158737	2
0	1843	587.743133750331	1
0	1845	587.743133750331	2
0	1851	594.766755944515	1
0	1853	594.766755944515	2
0	1855	596.219585802953	1
0	1857	596.219585802953	2
0	1859	597.359891548454	1
0	1861	597.359891548454	2
0	1867	601.446119940155	1
0	1869	601.446119940155	2
0	1875	604.221186333606	1
0	1877	604.221186333606	2
0	1879	604.452666581075	1
0	1881	604.452666581075	2
0	1883	606.834310443619	1
0	1885	606.834310443619	2
0	1895	611.270768907292	1
0	1897	611.270768907292	2
0	1899	611.562834300151	1
0	1901	611.562834300151	2
0	1905	612.839161312957	1
0	1907	612.839161312957	2
0	1911	613.669366381661	1
0	1913	613.669366381661	2
0	1915	614.918526490216	1
0	1917	614.918526490216	2
0	1921	615.289344056849	1
0	1923	615.289344056849	2
0	1927	616.315187742548	1
0	1929	616.315187742548	2
0	1931	616.916239064987	1
0	1933	616.916239064987	2
0	1935	617.0296509632	1
0	1937	617.0296509632	2
0	1943	618.043586007158	1
0	1945	618.043586007158	2
0	1953	620.337407798818	1
0	1955	620.337407798818	2
0	1961	621.43377594884	1
0	1963	621.43377594884	2
0	1967	622.36192046729	1
0	1969	622.36192046729	2
0	1971	623.873892773037	1
0	1973	623.873892773037	2
0	1977	626.179441803231	1
0	1979	626.179441803231	2
0	1981	626.419996835451	1
0	1983	626.419996835451	2
0	1985	628.49243431438	1
0	1987	628.49243431438	2
0	1993	628.903300272705	1
0	1995	628.903300272705	2
0	2003	633.668389057143	1
0	2005	633.668389057143	2
0	2009	636.428759152946	1
0	2011	636.428759152946	2
0	2013	637.513450255456	1
0	2015	637.513450255456	2
0	2019	639.161412352043	1
0	2021	639.161412352043	2
0	2023	641.241789738417	1
0	2025	641.241789738417	2
0	2033	644.229859978222	1
0	2035	644.229859978222	2
0	2039	645.527687597758	1
0	2041	645.527687597758	2
0	2043	646.718790306437	1
0	2045	646.718790306437	2
0	2047	648.352870026429	1
0	2049	648.352870026429	2
0	2051	648.436957529523	1
0	2053	648.436957529523	2
0	2057	651.159594981775	1
0	2059	651.159594981775	2
0	2067	653.377391480071	1
0	2069	653.377391480071	2
0	2071	653.964689559846	1
0	2073	653.964689559846	2
0	2077	658.773770997491	1
0	2079	658.773770997491	2
0	2087	661.540289860271	1
0	2089	661.540289860271	2
0	2093	665.238417186904	1
0	2095	665.238417186904	2
0	2099	669.35841726525	1
0	2101	669.35841726525	2
0	2103	670.787379761814	1
0	2105	670.787379761814	2
0	2109	672.044453573248	1
0	2111	672.044453573248	2
0	2117	676.629742724078	1
0	2119	676.629742724078	2
0	2121	677.329173034342	1
0	2123	677.329173034342	2
0	2125	679.21555519693	1
0	2127	679.21555519693	2
0	2131	680.381123970433	1
0	2133	680.381123970433	2
0	2135	680.507766811433	1
0	2137	680.507766811433	2
0	2147	686.679971652897	1
0	2149	686.679971652897	2
0	2151	687.776939267291	1
0	2153	687.776939267291	2
0	2155	689.457567015387	1
0	2157	689.457567015387	2
0	2163	690.276126255828	1
0	2165	690.276126255828	2
0	2169	693.500903055678	1
0	2171	693.500903055678	2
0	2173	693.506158659902	1
0	2175	693.506158659902	2
0	2181	697.40854767682	1
0	2183	697.40854767682	2
0	2187	698.595880176862	1
0	2189	698.595880176862	2
0	2193	699.955617754864	1
0	2195	699.955617754864	2
0	2197	700.614486865602	1
0	2199	700.614486865602	2
0	2205	704.816424741347	1
0	2207	704.816424741347	2
0	2209	705.892764842034	1
0	2211	705.892764842034	2
0	2219	712.819006776407	1
0	2221	712.819006776407	2
0	2223	713.817085127678	1
0	2225	713.817085127678	2
0	2231	717.511147962583	1
0	2233	717.511147962583	2
0	2237	720.09326974431	1
0	2239	720.09326974431	2
0	2243	720.244222578562	1
0	2245	720.244222578562	2
0	2247	720.717253406205	1
0	2249	720.717253406205	2
0	2255	722.760953056076	1
0	2257	722.760953056076	2
0	2261	733.855497410406	1
0	2263	733.855497410406	2
0	2265	734.027070971236	1
0	2267	734.027070971236	2
0	2271	735.043319793931	1
0	2273	735.043319793931	2
0	2275	735.053489690152	1
0	2277	735.053489690152	2
0	2279	736.351309188012	1
0	2281	736.351309188012	2
0	2283	736.968985687565	1
0	2285	736.968985687565	2
0	2297	750.519130023072	1
0	2299	750.519130023072	2
0	2301	750.650228309302	1
0	2303	750.650228309302	2
0	2307	752.395285880232	1
0	2309	752.395285880232	2
0	2313	758.932267683755	1
0	2315	758.932267683755	2
0	2321	764.575068595528	1
0	2323	764.575068595528	2
0	2325	764.78051584456	1
0	2327	764.78051584456	2
0	2331	773.556513314691	1
0	2333	773.556513314691	2
0	2339	782.354777524894	1
0	2341	782.354777524894	2
0	2343	783.670311773478	1
0	2345	783.670311773478	2
0	2349	786.703860477259	1
0	2351	786.703860477259	2
0	2357	789.32111403086	1
0	2359	789.32111403086	2
0	2361	792.367265906065	1
0	2363	792.367265906065	2
0	2367	793.179454842892	1
0	2369	793.179454842892	2
0	2373	794.733188460864	1
0	2375	794.733188460864	2
0	2377	795.546684635535	1
0	2379	795.546684635535	2
0	2385	798.467870705871	1
0	2387	798.467870705871	2
0	2389	798.471137438136	1
0	2391	798.471137438136	2
0	2393	799.964425662683	1
0	2395	799.964425662683	2
0	2397	800.010545903968	1
0	2399	800.010545903968	2
0	2403	800.712994348601	1
0	2405	800.712994348601	2
0	2407	800.772202934063	1
0	2409	800.772202934063	2
0	2423	809.292180215337	1
0	2425	809.292180215337	2
0	2427	809.473528260537	1
0	2429	809.473528260537	2
0	2433	811.412110661025	1
0	2435	811.412110661025	2
0	2437	811.563560704505	1
0	2439	811.563560704505	2
0	2441	812.588576544314	1
0	2443	812.588576544314	2
0	2447	813.990818939988	1
0	2449	813.990818939988	2
0	2451	814.0609241286	1
0	2453	814.0609241286	2
0	2457	815.689214476359	1
0	2459	815.689214476359	2
0	2471	821.946599665001	1
0	2473	821.946599665001	2
0	2475	824.103001899913	1
0	2477	824.103001899913	2
0	2479	828.563972424397	1
0	2481	828.563972424397	2
0	2487	831.839125539685	1
0	2489	831.839125539685	2
0	2493	834.527851244457	1
0	2495	834.527851244457	2
0	2501	839.093182734263	1
0	2503	839.093182734263	2
0	2507	843.325118524781	1
0	2509	843.325118524781	2
0	2513	855.951465177206	1
0	2515	855.951465177206	2
0	2519	856.322562314985	1
0	2521	856.322562314985	2
0	2523	857.13002840669	1
0	2525	857.13002840669	2
0	2527	858.141614063125	1
0	2529	858.141614063125	2
0	2533	861.749787177963	1
0	2535	861.749787177963	2
0	2543	870.475010277192	1
0	2545	870.475010277192	2
0	2547	875.837721007273	1
0	2549	875.837721007273	2
0	2551	876.347928432018	1
0	2553	876.347928432018	2
0	2557	876.59791282613	1
0	2559	876.59791282613	2
0	2563	879.02133219108	1
0	2565	879.02133219108	2
0	2567	879.922452400066	1
0	2569	879.922452400066	2
0	2577	884.159292730078	1
0	2579	884.159292730078	2
0	2581	885.398032274189	1
0	2583	885.398032274189	2
0	2589	886.58818715355	1
0	2591	886.58818715355	2
0	2593	887.087334918383	1
0	2595	887.087334918383	2
0	2601	889.879743422138	1
0	2603	889.879743422138	2
0	2605	890.376789656955	1
0	2607	890.376789656955	2
0	2611	891.295652091101	1
0	2613	891.295652091101	2
0	2615	894.255270949686	1
0	2617	894.255270949686	2
0	2623	894.790917296446	1
0	2625	894.790917296446	2
0	2627	895.575143512452	1
0	2629	895.575143512452	2
0	2633	895.72117812639	1
0	2635	895.72117812639	2
0	2645	899.241891833118	1
0	2647	899.241891833118	2
0	2649	900.623970948166	1
0	2651	900.623970948166	2
0	2657	902.552201573269	1
0	2659	902.552201573269	2
0	2661	903.134743751297	1
0	2663	903.134743751297	2
0	2667	905.442951843855	1
0	2669	905.442951843855	2
0	2671	905.518768418704	1
0	2673	905.518768418704	2
0	2677	906.078994003148	1
0	2679	906.078994003148	2
0	2683	907.419239242641	1
0	2685	907.419239242641	2
0	2693	913.393851921573	1
0	2695	913.393851921573	2
0	2697	914.905581130915	1
0	2699	914.905581130915	2
0	2701	915.728597907853	1
0	2703	915.728597907853	2
0	2711	921.386388843824	1
0	2713	921.386388843824	2
0	2715	922.459776736634	1
0	2717	922.459776736634	2
0	2723	927.027045605493	1
0	2725	927.027045605493	2
0	2727	927.161805327849	1
0	2729	927.161805327849	2
0	2733	932.572346037505	1
0	2735	932.572346037505	2
0	2741	934.819167346995	1
0	2743	934.819167346995	2
0	2745	935.439854476092	1
0	2747	935.439854476092	2
0	2753	940.349868529792	1
0	2755	940.349868529792	2
0	2757	940.715276552988	1
0	2759	940.715276552988	2
0	2761	941.468913963893	1
0	2763	941.468913963893	2
0	2765	941.761485894483	1
0	2767	941.761485894483	2
0	2775	945.629944635941	1
0	2777	945.629944635941	2
0	2779	949.671555560773	1
0	2781	949.671555560773	2
0	2783	950.084468953055	1
0	2785	950.084468953055	2
0	2791	952.814725907496	1
0	2793	952.814725907496	2
0	2795	953.60172162414	1
0	2797	953.60172162414	2
0	2799	954.312595016861	1
0	2801	954.312595016861	2
0	2813	956.257408733104	1
0	2815	956.257408733104	2
0	2819	958.16338811303	1
0	2821	958.16338811303	2
0	2825	959.158677301941	1
0	2827	959.158677301941	2
0	2829	959.479406206179	1
0	2831	959.479406206179	2
0	2835	960.444317469646	1
0	2837	960.444317469646	2
0	2839	961.201898786379	1
0	2841	961.201898786379	2
0	2843	962.914921582388	1
0	2845	962.914921582388	2
0	2855	965.328992832117	1
0	2857	965.328992832117	2
0	2861	970.974481977466	1
0	2863	970.974481977466	2
0	2867	973.59331776815	1
0	2869	973.59331776815	2
0	2873	976.603621960099	1
0	2875	976.603621960099	2
0	2879	977.175945716154	1
0	2881	977.175945716154	2
0	2883	979.536345541866	1
0	2885	979.536345541866	2
0	2887	979.661468510052	1
0	2889	979.661468510052	2
0	2893	981.153939510806	1
0	2895	981.153939510806	2
0	2901	986.664289852198	1
0	2903	986.664289852198	2
0	2907	986.915016302937	1
0	2909	986.915016302937	2
0	2913	990.099518514747	1
0	2915	990.099518514747	2
0	2917	990.454267094606	1
0	2919	990.454267094606	2
0	2921	990.577789220556	1
0	2923	990.577789220556	2
0	2931	993.9327793182	1
0	2933	993.9327793182	2
0	2939	997.734219763922	1
0	2941	997.734219763922	2
0	2943	999.736808966623	1
0	2945	999.736808966623	2
1	357	100.300147554749	5.352106005376
1	363	102.968875997837	4.976739043189
1	367	104.313303099378	4.013155544629
1	377	110.471157515958	7.502281518121
1	381	110.805012825812	6.491709726434
1	387	112.899628270161	2.428470754203
1	395	114.529867105504	3.724854279692
1	399	118.587844259605	5.688215989444
1	403	118.897945127408	4.368078021904
1	407	120.086013044638	1.498168785033
1	413	122.239127561019	3.341182433611
1	417	124.406829872722	4.320816828084
1	431	128.054155551956	5.815027990937
1	437	129.575113821609	5.168283948887
1	441	129.656020646163	1.601865094207
1	445	129.856984080261	0.281870258652
1	453	133.064840010963	3.4088193648
1	461	134.094468774805	4.237484694544
1	467	136.388721072134	3.323881061171
1	473	137.782724232776	3.688255457971
1	477	138.794990240406	2.406269168272
1	485	141.876836349735	4.094112116959
1	491	147.922473589297	9.127483348891
1	495	148.519163304091	6.642326954356
1	501	149.986608717536	2.064135128239
1	507	154.038084961459	5.518921657368
1	513	155.268093772917	5.281485055381
1	517	155.501173830483	1.463088869024
1	525	158.710095952311	3.442002179394
1	531	160.088084015268	4.586910184785
1	535	160.527322229661	1.81722627735
1	541	164.703481485265	4.615397469997
1	547	165.32790775067	4.800585521009
1	555	165.868740363516	1.165258878251
1	559	166.801059816336	1.473152065666
1	565	167.776266777722	1.907526414206
1	569	168.307040079449	1.505980263113
1	573	168.693674176028	0.917407398306
1	577	169.710350900946	1.403310821497
1	593	173.395988835975	4.702314659947
1	597	176.486386974745	6.776036073799
1	605	178.534033420846	5.138044584871
1	611	179.904459127481	3.418072152736
1	615	181.185780394164	2.651746973318
1	619	182.471581083929	2.567121956448
1	629	188.221345231397	7.035564837233
1	633	190.898635142975	8.427054059046
1	637	190.983558902911	2.762213671514
1	643	193.819379592992	2.920744450017
1	649	195.260009418851	4.27645051594
1	655	195.653075354467	1.833695761475
1	661	196.648241266926	1.388231848075
1	671	202.261533973226	6.608458618759
1	675	202.740381116279	6.092139849353
1	683	206.096845599913	3.835311626687
1	687	207.130695890651	4.390314774372
1	691	208.897960242925	2.801114643012
1	697	209.309547336669	2.178851446018
1	705	212.655607929093	3.757647686168
1	709	214.394648425565	5.085101088896
1	715	215.579199040793	2.9235911117
1	725	218.778980391047	4.384331965482
1	729	220.350698026563	4.77149898577
1	737	221.434699791906	2.655719400859
1	741	221.473384843104	1.122686816541
1	745	223.775979326764	2.341279534858
1	751	225.115223203391	3.641838360287
1	755	225.61363279964	1.837653472876
1	761	227.213063179433	2.097839976042
1	769	228.691827029828	3.078194230188
1	775	230.02894099108	2.815877811647
1	783	230.639361201848	1.94753417202
1	787	232.137889752867	2.108948761787
1	797	240.467303137255	9.827941935407
1	803	242.420571021369	10.282681268502
1	809	244.406682037568	3.939378900313
1	815	249.221971026335	6.801400004966
1	821	255.789839240136	11.383157202568
1	827	257.549273800776	8.327302774441
1	831	257.90967599521	2.119836755074
1	835	258.903499471196	1.35422567042
1	845	264.688224472464	6.778548477254
1	851	265.529558160593	6.626058689397
1	857	267.971595141964	3.2833706695
1	863	269.214687958403	3.68512979781
1	867	270.19278586494	2.221190722976
1	873	271.696172176091	2.481484217688
1	881	275.144634677488	4.951848812548
1	887	277.179494041073	5.483321864982
1	893	281.153418933932	6.008784256444
1	899	283.178067227097	5.998573186024
1	905	297.698556068956	16.545137135024
1	909	299.157266058316	15.979198831219
1	915	299.951119316188	2.252563247232
1	919	300.159116057248	1.001849998932
1	927	301.832072516331	1.880953200143
1	931	302.316745480993	2.157629423745
1	935	302.340467178049	0.508394661718
1	943	303.051576376806	0.734830895813
1	947	303.131091128454	0.790623950405
1	955	310.608392308649	7.556815931843
1	963	312.211876329595	9.080785201141
1	967	312.360711901343	1.752319592694
1	971	313.191948309106	0.980071979511
1	975	313.748474498318	1.387762596975
1	979	313.975597765678	0.783649456572
1	985	316.917826379866	3.169351881548
1	993	317.781243992009	3.805646226331
1	999	318.196874100033	1.279047720167
1	1011	323.072600165589	5.29135617358
1	1019	327.021297341486	8.824423241453
1	1025	328.039279396919	4.96667923133
1	1031	329.620078209008	2.598780867522
1	1035	330.81711792516	2.777838528241
1	1041	333.182840358822	3.562762149814
1	1045	333.664045722263	2.846927797103
1	1051	334.446575253795	1.263734894973
1	1061	337.139899036046	3.475853313783
1	1065	337.543080299906	3.096505046111
1	1073	339.924679825965	2.784780789919
1	1077	341.420879683247	3.877799383341
1	1081	341.863397986015	1.93871816005
1	1091	343.965695556912	2.544815873665
1	1095	345.391483257977	3.528085271962
1	1101	347.727647044415	3.761951487503
1	1109	349.431595316856	4.040112058879
1	1115	352.371976434925	4.64432939051
1	1119	353.370588393754	3.938993076898
1	1127	359.739051904511	7.367075469586
1	1133	367.377198016937	14.006609623183
1	1137	367.84076238316	8.101710478649
1	1143	369.133294552668	1.756096535731
1	1149	372.256147419082	4.415385035922
1	1153	372.529933202132	3.396638649464
1	1163	376.038794039728	3.782646620646
1	1167	376.580931505258	4.050998303126
1	1175	382.226696670124	6.187902630396
1	1179	385.663620138402	9.082688633144
1	1183	385.76991453245	3.543217862326
1	1187	385.773627265194	0.110007126792
1	1191	386.163158464797	0.393243932347
1	1197	387.709383528569	1.935756263375
1	1207	389.253834402491	3.090675937694
1	1215	390.687770216985	2.978386688416
1	1219	391.242404534385	1.988570131894
1	1223	391.254796296085	0.5670260791
1	1231	393.958711646927	2.716307112542
1	1237	395.153311440314	3.898515144229
1	1245	399.307632784861	5.348921137934
1	1251	400.286267507379	5.132956067065
1	1255	400.294605191744	0.986972406883
1	1259	400.61191719482	0.325649687441
1	1263	400.686631848918	0.392026657174
1	1269	401.322078405546	0.710161210726
1	1273	401.931383501394	1.244751652476
1	1283	403.810739775527	2.488661369981
1	1289	404.131769266277	2.200385764883
1	1293	404.597387718849	0.786647943322
1	1297	407.152453715265	3.020684448988
1	1303	407.775277759515	3.177890040666