version 3
run General-18-20221103-10:28:22-6760
attr configname General
attr datetime 20221103-10:28:22
attr datetimef 20221103-102822
attr experiment General
attr inifile block.ini
attr iterationvars "$0=3, $1=10"
attr iterationvarsd 3/10
attr iterationvarsf 3,10-
attr measurement "$0=3, $1=10"
attr network Block
attr processid 6760
attr repetition 3
attr replication #3
attr resultdir results
attr runnumber 18
attr seedset 18
config network Block
config repeat 5
config sim-time-limit 1000s
config warmup-period 100s
config **.alloca.resourceModuleName "\"risorse\""
config **.dealloca.resourceModuleName "\"risorse\""
config **.is.delay exponential(3s)
config **.servente.serviceTime exponential(3s)
config **.dealloca.resourceAmount 2
config **.alloca.resourceAmount 2
config **.risorse.amount 6
config **.sorgente.numJobs (10)
config **.result-recording-modes all

vector 0 Block.servente queueLength:vector ETV
attr interpolationmode sample-hold
attr recordingmode vector
attr title "queue length"
vector 1 Block.servente queueingTime:vector ETV
attr interpolationmode none
attr recordingmode vector
attr title "queueing time at dequeue"
attr unit s
vector 2 Block.alloca queueLength:vector ETV
attr interpolationmode sample-hold
attr recordingmode vector
attr title "queue length"
vector 3 Block.alloca queueingTime:vector ETV
attr interpolationmode none
attr recordingmode vector
attr title "queueing time at dequeue"
attr unit s
vector 4 Block.risorse amount:vector ETV
attr interpolationmode sample-hold
attr recordingmode vector
attr title "available resource"
vector 5 Block.is delayedJobs:vector ETV
attr interpolationmode sample-hold
attr recordingmode vector
attr title "number of delayed jobs"
0	207	100.706886049731	1
0	209	100.706886049731	2
0	215	102.051391274773	1
0	217	102.051391274773	2
0	221	106.864705348572	1
0	223	106.864705348572	2
0	227	115.565329318163	1
0	229	115.565329318163	2
0	233	118.033373435811	1
0	235	118.033373435811	2
0	239	122.925958030572	1
0	241	122.925958030572	2
0	245	127.062860260218	1
0	247	127.062860260218	2
0	249	127.591040687146	1
0	251	127.591040687146	2
0	257	133.650907016728	1
0	259	133.650907016728	2
0	263	135.556686377013	1
0	265	135.556686377013	2
0	269	145.191077999665	1
0	271	145.191077999665	2
0	275	147.268693047936	1
0	277	147.268693047936	2
0	279	151.463365441909	1
0	281	151.463365441909	2
0	285	153.892788645953	1
0	287	153.892788645953	2
0	289	154.08299249297	1
0	291	154.08299249297	2
0	297	154.445336602299	1
0	299	154.445336602299	2
0	303	156.436055255268	1
0	305	156.436055255268	2
0	307	158.339355063797	1
0	309	158.339355063797	2
0	313	159.077486045197	1
0	315	159.077486045197	2
0	317	159.186296611823	1
0	319	159.186296611823	2
0	321	160.545005332702	1
0	323	160.545005332702	2
0	327	160.716117438002	1
0	329	160.716117438002	2
0	333	164.915737715174	1
0	335	164.915737715174	2
0	341	166.125559997564	1
0	343	166.125559997564	2
0	351	170.545824589247	1
0	353	170.545824589247	2
0	357	172.511786494563	1
0	359	172.511786494563	2
0	363	173.713330434197	1
0	365	173.713330434197	2
0	369	176.667494985946	1
0	371	176.667494985946	2
0	375	178.341070024467	1
0	377	178.341070024467	2
0	381	179.208357577706	1
0	383	179.208357577706	2
0	385	179.645516117863	1
0	387	179.645516117863	2
0	393	183.941625421995	1
0	395	183.941625421995	2
0	399	191.4318839018	1
0	401	191.4318839018	2
0	405	192.086053399826	1
0	407	192.086053399826	2
0	411	195.620466344231	1
0	413	195.620466344231	2
0	415	197.623582105258	1
0	417	197.623582105258	2
0	419	197.669991345271	1
0	421	197.669991345271	2
0	427	199.529644780818	1
0	429	199.529644780818	2
0	435	201.686872782082	1
0	437	201.686872782082	2
0	439	202.425669037885	1
0	441	202.425669037885	2
0	447	205.690668884361	1
0	449	205.690668884361	2
0	455	208.378835931876	1
0	457	208.378835931876	2
0	461	210.470752587625	1
0	463	210.470752587625	2
0	467	215.650499373143	1
0	469	215.650499373143	2
0	473	216.360416574415	1
0	475	216.360416574415	2
0	477	217.195624828052	1
0	479	217.195624828052	2
0	485	227.72801395124	1
0	487	227.72801395124	2
0	489	230.945430147358	1
0	491	230.945430147358	2
0	495	234.471750119873	1
0	497	234.471750119873	2
0	503	247.811378115608	1
0	505	247.811378115608	2
0	509	251.903580885036	1
0	511	251.903580885036	2
0	513	254.424602263281	1
0	515	254.424602263281	2
0	519	256.412774576918	1
0	521	256.412774576918	2
0	525	257.452283771759	1
0	527	257.452283771759	2
0	533	259.48149927616	1
0	535	259.48149927616	2
0	539	262.221445790436	1
0	541	262.221445790436	2
0	545	269.627969726034	1
0	547	269.627969726034	2
0	549	270.189804371884	1
0	551	270.189804371884	2
0	557	271.779366754755	1
0	559	271.779366754755	2
0	563	279.661923631976	1
0	565	279.661923631976	2
0	569	280.754058862824	1
0	571	280.754058862824	2
0	575	282.638098286618	1
0	577	282.638098286618	2
0	579	284.717066816121	1
0	581	284.717066816121	2
0	587	289.288082045345	1
0	589	289.288082045345	2
0	591	289.319100742069	1
0	593	289.319100742069	2
0	597	291.881948135058	1
0	599	291.881948135058	2
0	605	296.469043753423	1
0	607	296.469043753423	2
0	611	304.887977354456	1
0	613	304.887977354456	2
0	617	308.835468627217	1
0	619	308.835468627217	2
0	623	318.863005031176	1
0	625	318.863005031176	2
0	627	319.675381263032	1
0	629	319.675381263032	2
0	631	320.252830852415	1
0	633	320.252830852415	2
0	639	325.192237839474	1
0	641	325.192237839474	2
0	643	325.697773095935	1
0	645	325.697773095935	2
0	653	330.503225593446	1
0	655	330.503225593446	2
0	659	340.618942639394	1
0	661	340.618942639394	2
0	665	341.516012038796	1
0	667	341.516012038796	2
0	669	342.809238428055	1
0	671	342.809238428055	2
0	673	344.44185038241	1
0	675	344.44185038241	2
0	683	347.759473078099	1
0	685	347.759473078099	2
0	687	348.739131300924	1
0	689	348.739131300924	2
0	693	351.055057509546	1
0	695	351.055057509546	2
0	697	351.325802633845	1
0	699	351.325802633845	2
0	705	357.207985672999	1
0	707	357.207985672999	2
0	709	357.878145189475	1
0	711	357.878145189475	2
0	717	360.569157686725	1
0	719	360.569157686725	2
0	725	367.54036977087	1
0	727	367.54036977087	2
0	729	368.932894662976	1
0	731	368.932894662976	2
0	737	377.043881733516	1
0	739	377.043881733516	2
0	743	381.753526988632	1
0	745	381.753526988632	2
0	747	382.640036443719	1
0	749	382.640036443719	2
0	753	386.766822591743	1
0	755	386.766822591743	2
0	761	388.405330391259	1
0	763	388.405330391259	2
0	767	392.710016412024	1
0	769	392.710016412024	2
0	773	397.033287491138	1
0	775	397.033287491138	2
0	777	397.487984278164	1
0	779	397.487984278164	2
0	783	400.944127466428	1
0	785	400.944127466428	2
0	787	401.076825238909	1
0	789	401.076825238909	2
0	795	403.120007602061	1
0	797	403.120007602061	2
0	801	403.716535268669	1
0	803	403.716535268669	2
0	807	403.85221417368	1
0	809	403.85221417368	2
0	813	405.509200348078	1
0	815	405.509200348078	2
0	821	410.533098167921	1
0	823	410.533098167921	2
0	827	411.636068502194	1
0	829	411.636068502194	2
0	831	412.44116774856	1
0	833	412.44116774856	2
0	835	412.549053655625	1
0	837	412.549053655625	2
0	839	413.404453918443	1
0	841	413.404453918443	2
0	849	417.952223311814	1
0	851	417.952223311814	2
0	857	421.616446301373	1
0	859	421.616446301373	2
0	863	424.251157091845	1
0	865	424.251157091845	2
0	869	436.801713658633	1
0	871	436.801713658633	2
0	873	439.658152237624	1
0	875	439.658152237624	2
0	881	449.220846313413	1
0	883	449.220846313413	2
0	885	451.223462748987	1
0	887	451.223462748987	2
0	893	460.337165063219	1
0	895	460.337165063219	2
0	899	464.491964776968	1
0	901	464.491964776968	2
0	903	466.346662949267	1
0	905	466.346662949267	2
0	909	467.863463456347	1
0	911	467.863463456347	2
0	913	470.410464117333	1
0	915	470.410464117333	2
0	923	476.788589743279	1
0	925	476.788589743279	2
0	927	477.700073685041	1
0	929	477.700073685041	2
0	933	481.149973291145	1
0	935	481.149973291145	2
0	941	483.406112849495	1
0	943	483.406112849495	2
0	947	483.840018453459	1
0	949	483.840018453459	2
0	953	490.804725980897	1
0	955	490.804725980897	2
0	959	495.363592182201	1
0	961	495.363592182201	2
0	963	497.060521293442	1
0	965	497.060521293442	2
0	969	499.171668695617	1
0	971	499.171668695617	2
0	977	502.802315791987	1
0	979	502.802315791987	2
0	981	504.736834444888	1
0	983	504.736834444888	2
0	987	505.957279128305	1
0	989	505.957279128305	2
0	991	508.225793224877	1
0	993	508.225793224877	2
0	995	508.479920615466	1
0	997	508.479920615466	2
0	1003	512.425269585046	1
0	1005	512.425269585046	2
0	1009	518.789930941027	1
0	1011	518.789930941027	2
0	1013	519.053592470324	1
0	1015	519.053592470324	2
0	1019	520.741044605823	1
0	1021	520.741044605823	2
0	1025	523.064385262586	1
0	1027	523.064385262586	2
0	1037	531.412026986194	1
0	1039	531.412026986194	2
0	1043	534.192530212919	1
0	1045	534.192530212919	2
0	1047	534.44973707235	1
0	1049	534.44973707235	2
0	1055	541.212498031094	1
0	1057	541.212498031094	2
0	1059	541.745399765524	1
0	1061	541.745399765524	2
0	1065	542.758197645462	1
0	1067	542.758197645462	2
0	1069	544.590442425465	1
0	1071	544.590442425465	2
0	1075	548.739338071275	1
0	1077	548.739338071275	2
0	1079	549.202472124201	1
0	1081	549.202472124201	2
0	1083	550.51532490848	1
0	1085	550.51532490848	2
0	1089	552.080482129304	1
0	1091	552.080482129304	2
0	1101	556.114036719272	1
0	1103	556.114036719272	2
0	1105	559.70587206383	1
0	1107	559.70587206383	2
0	1109	559.980291645735	1
0	1111	559.980291645735	2
0	1113	560.218524682342	1
0	1115	560.218524682342	2
0	1117	560.631563435974	1
0	1119	560.631563435974	2
0	1131	564.418833207487	1
0	1133	564.418833207487	2
0	1137	566.846896831529	1
0	1139	566.846896831529	2
0	1143	570.378943231942	1
0	1145	570.378943231942	2
0	1147	570.389876997472	1
0	1149	570.389876997472	2
0	1155	573.141965546582	1
0	1157	573.141965546582	2
0	1159	574.816697220002	1
0	1161	574.816697220002	2
0	1163	574.855141014612	1
0	1165	574.855141014612	2
0	1169	576.591753817666	1
0	1171	576.591753817666	2
0	1177	577.558034593973	1
0	1179	577.558034593973	2
0	1185	579.72271310854	1
0	1187	579.72271310854	2
0	1193	588.073862679328	1
0	1195	588.073862679328	2
0	1197	590.094533635461	1
0	1199	590.094533635461	2
0	1203	592.025058023054	1
0	1205	592.025058023054	2
0	1209	592.8035487072	1
0	1211	592.8035487072	2
0	1213	595.058575643159	1
0	1215	595.058575643159	2
0	1221	600.639462720279	1
0	1223	600.639462720279	2
0	1227	602.739664460847	1
0	1229	602.739664460847	2
0	1235	606.809981272612	1
0	1237	606.809981272612	2
0	1239	607.19146518561	1
0	1241	607.19146518561	2
0	1243	607.260980865426	1
0	1245	607.260980865426	2
0	1249	609.418346015624	1
0	1251	609.418346015624	2
0	1253	610.260398091571	1
0	1255	610.260398091571	2
0	1265	618.591311204667	1
0	1267	618.591311204667	2
0	1271	623.232147762307	1
0	1273	623.232147762307	2
0	1275	623.911354059501	1
0	1277	623.911354059501	2
0	1283	628.625373544664	1
0	1285	628.625373544664	2
0	1287	629.214578052604	1
0	1289	629.214578052604	2
0	1291	629.411597996111	1
0	1293	629.411597996111	2
0	1299	631.292124719515	1
0	1301	631.292124719515	2
0	1303	632.37254591453	1
0	1305	632.37254591453	2
0	1307	632.737000998892	1
0	1309	632.737000998892	2
0	1315	633.606402932991	1
0	1317	633.606402932991	2
0	1319	634.052952095676	1
0	1321	634.052952095676	2
0	1325	634.578162688657	1
0	1327	634.578162688657	2
0	1331	636.558861310851	1
0	1333	636.558861310851	2
0	1335	636.98848386126	1
0	1337	636.98848386126	2
0	1341	638.223885182533	1
0	1343	638.223885182533	2
0	1355	647.905084323526	1
0	1357	647.905084323526	2
0	1359	648.425258202296	1
0	1361	648.425258202296	2
0	1367	653.922728030499	1
0	1369	653.922728030499	2
0	1373	656.082110335343	1
0	1375	656.082110335343	2
0	1379	662.84307745325	1
0	1381	662.84307745325	2
0	1383	663.589127694064	1
0	1385	663.589127694064	2
0	1391	665.714931125629	1
0	1393	665.714931125629	2
0	1395	667.468047422262	1
0	1397	667.468047422262	2
0	1403	670.433953077666	1
0	1405	670.433953077666	2
0	1407	670.455483585202	1
0	1409	670.455483585202	2
0	1415	670.832990445814	1
0	1417	670.832990445814	2
0	1421	673.386728057107	1
0	1423	673.386728057107	2
0	1427	686.728388319664	1
0	1429	686.728388319664	2
0	1431	687.143159956258	1
0	1433	687.143159956258	2
0	1435	687.402931599893	1
0	1437	687.402931599893	2
0	1439	688.422165630224	1
0	1441	688.422165630224	2
0	1449	692.762847386271	1
0	1451	692.762847386271	2
0	1453	693.497430368088	1
0	1455	693.497430368088	2
0	1461	695.406875765062	1
0	1463	695.406875765062	2
0	1465	695.662375594358	1
0	1467	695.662375594358	2
0	1473	698.761786711104	1
0	1475	698.761786711104	2
0	1477	699.818867836875	1
0	1479	699.818867836875	2
0	1485	701.871424238146	1
0	1487	701.871424238146	2
0	1493	705.322533478526	1
0	1495	705.322533478526	2
0	1497	707.400612624934	1
0	1499	707.400612624934	2
0	1501	708.767315753298	1
0	1503	708.767315753298	2
0	1507	710.031897225682	1
0	1509	710.031897225682	2
0	1511	710.437867080311	1
0	1513	710.437867080311	2
0	1517	711.537190918958	1
0	1519	711.537190918958	2
0	1523	714.593500544886	1
0	1525	714.593500544886	2
0	1531	715.047697310942	1
0	1533	715.047697310942	2
0	1539	716.634178548916	1
0	1541	716.634178548916	2
0	1543	717.739231398081	1
0	1545	717.739231398081	2
0	1549	722.241893653816	1
0	1551	722.241893653816	2
0	1559	727.494897450716	1
0	1561	727.494897450716	2
0	1565	732.000792980356	1
0	1567	732.000792980356	2
0	1569	732.704458381623	1
0	1571	732.704458381623	2
0	1575	733.640653239689	1
0	1577	733.640653239689	2
0	1579	734.780180517133	1
0	1581	734.780180517133	2
0	1587	737.252153540772	1
0	1589	737.252153540772	2
0	1595	748.932877780851	1
0	1597	748.932877780851	2
0	1599	749.242897632048	1
0	1601	749.242897632048	2
0	1607	753.011167336266	1
0	1609	753.011167336266	2
0	1613	758.504125753793	1
0	1615	758.504125753793	2
0	1617	760.184026909632	1
0	1619	760.184026909632	2
0	1621	760.427860714363	1
0	1623	760.427860714363	2
0	1631	776.969518266189	1
0	1633	776.969518266189	2
0	1635	779.614984338697	1
0	1637	779.614984338697	2
0	1641	781.503333486545	1
0	1643	781.503333486545	2
0	1647	782.462330100776	1
0	1649	782.462330100776	2
0	1655	785.698451767553	1
0	1657	785.698451767553	2
0	1659	785.985569618655	1
0	1661	785.985569618655	2
0	1665	787.136419855016	1
0	1667	787.136419855016	2
0	1671	790.401360834402	1
0	1673	790.401360834402	2
0	1675	791.10322250372	1
0	1677	791.10322250372	2
0	1679	792.388288073499	1
0	1681	792.388288073499	2
0	1689	798.193952421905	1
0	1691	798.193952421905	2
0	1697	802.168997396599	1
0	1699	802.168997396599	2
0	1701	802.578265686562	1
0	1703	802.578265686562	2
0	1707	804.103543697332	1
0	1709	804.103543697332	2
0	1711	804.17988867456	1
0	1713	804.17988867456	2
0	1715	805.510404834418	1
0	1717	805.510404834418	2
0	1719	805.75329978327	1
0	1721	805.75329978327	2
0	1733	813.621031251405	1
0	1735	813.621031251405	2
0	1737	816.198443987606	1
0	1739	816.198443987606	2
0	1743	819.988669876699	1
0	1745	819.988669876699	2
0	1751	821.18519589204	1
0	1753	821.18519589204	2
0	1755	821.439751928353	1
0	1757	821.439751928353	2
0	1761	822.403162341233	1
0	1763	822.403162341233	2
0	1767	823.903724955579	1
0	1769	823.903724955579	2
0	1773	826.28781706442	1
0	1775	826.28781706442	2
0	1777	826.411964279132	1
0	1779	826.411964279132	2
0	1785	830.711159844218	1
0	1787	830.711159844218	2
0	1791	831.949045228356	1
0	1793	831.949045228356	2
0	1797	833.773754724918	1
0	1799	833.773754724918	2
0	1805	835.906309614349	1
0	1807	835.906309614349	2
0	1809	837.22854591079	1
0	1811	837.22854591079	2
0	1817	845.902645253789	1
0	1819	845.902645253789	2
0	1821	847.345064813562	1
0	1823	847.345064813562	2
0	1829	851.212616355437	1
0	1831	851.212616355437	2
0	1833	852.629130551333	1
0	1835	852.629130551333	2
0	1837	853.320289991999	1
0	1839	853.320289991999	2
0	1847	861.101511142755	1
0	1849	861.101511142755	2
0	1851	861.9701112526	1
0	1853	861.9701112526	2
0	1859	870.366169444128	1
0	1861	870.366169444128	2
0	1865	872.877027597031	1
0	1867	872.877027597031	2
0	1869	873.659577425131	1
0	1871	873.659577425131	2
0	1877	878.385943304702	1
0	1879	878.385943304702	2
0	1881	880.227868234082	1
0	1883	880.227868234082	2
0	1887	881.94674032088	1
0	1889	881.94674032088	2
0	1891	886.643264057237	1
0	1893	886.643264057237	2
0	1897	889.071589518147	1
0	1899	889.071589518147	2
0	1903	889.458159525884	1
0	1905	889.458159525884	2
0	1911	890.693002422087	1
0	1913	890.693002422087	2
0	1915	893.204663523466	1
0	1917	893.204663523466	2
0	1921	893.547143364652	1
0	1923	893.547143364652	2
0	1931	901.778043789655	1
0	1933	901.778043789655	2
0	1935	902.497461462885	1
0	1937	902.497461462885	2
0	1943	908.843954935087	1
0	1945	908.843954935087	2
0	1947	911.367484523199	1
0	1949	911.367484523199	2
0	1955	913.693605184301	1
0	1957	913.693605184301	2
0	1961	916.882758108576	1
0	1963	916.882758108576	2
0	1965	918.198511232491	1
0	1967	918.198511232491	2
0	1973	922.121009880042	1
0	1975	922.121009880042	2
0	1977	924.618169621502	1
0	1979	924.618169621502	2
0	1983	927.861504240852	1
0	1985	927.861504240852	2
0	1989	929.114321527474	1
0	1991	929.114321527474	2
0	1995	929.829804894915	1
0	1997	929.829804894915	2
0	2003	933.485218229569	1
0	2005	933.485218229569	2
0	2009	936.934537758115	1
0	2011	936.934537758115	2
0	2015	939.422958801164	1
0	2017	939.422958801164	2
0	2021	951.228604318705	1
0	2023	951.228604318705	2
0	2027	952.95178169872	1
0	2029	952.95178169872	2
0	2031	953.040968995062	1
0	2033	953.040968995062	2
0	2035	954.120280112353	1
0	2037	954.120280112353	2
0	2045	957.866866147557	1
0	2047	957.866866147557	2
0	2049	960.809349587121	1
0	2051	960.809349587121	2
0	2055	961.676981752049	1
0	2057	961.676981752049	2
0	2061	970.422597236142	1
0	2063	970.422597236142	2
0	2069	977.055244977202	1
0	2071	977.055244977202	2
0	2075	979.193939460709	1
0	2077	979.193939460709	2
0	2081	981.920687823226	1
0	2083	981.920687823226	2
0	2087	984.00045119137	1
0	2089	984.00045119137	2
0	2093	988.117487956812	1
0	2095	988.117487956812	2
0	2097	992.946409853049	1
0	2099	992.946409853049	2
0	2105	996.249896792264	1
0	2107	996.249896792264	2
1	207	100.706886049731	7.986639582536
1	215	102.051391274773	3.716469384849
1	221	106.864705348572	6.157819298841
1	227	115.565329318163	13.51393804339
1	233	118.033373435811	11.168668087239
1	239	122.925958030572	7.360628712409
1	245	127.062860260218	9.029486824407
1	249	127.591040687146	4.665082656574
1	257	133.650907016728	6.58804675651
1	263	135.556686377013	7.965645689867
1	269	145.191077999665	11.540170982937
1	275	147.268693047936	11.712006670923
1	279	151.463365441909	6.272287442244
1	285	153.892788645953	6.624095598017
1	289	154.08299249297	2.619627051061
1	297	154.445336602299	0.552547956346
1	303	156.436055255268	2.353062762298
1	307	158.339355063797	3.894018461498
1	313	159.077486045197	2.641430789929
1	317	159.186296611823	0.846941548026
1	321	160.545005332702	1.467519287505
1	327	160.716117438002	1.529820826179
1	333	164.915737715174	4.370732382472
1	341	166.125559997564	5.409442559562
1	351	170.545824589247	5.630086874073
1	357	172.511786494563	6.386226496999
1	363	173.713330434197	3.16750584495
1	369	176.667494985946	4.155708491383
1	375	178.341070024467	4.62773959027
1	381	179.208357577706	2.54086259176
1	385	179.645516117863	1.304446093396
1	393	183.941625421995	4.733267844289
1	399	191.4318839018	11.786367783937
1	405	192.086053399826	8.144427977831
1	411	195.620466344231	4.188582442431
1	415	197.623582105258	5.537528705432
1	419	197.669991345271	2.04952500104
1	427	199.529644780818	1.90606267556
1	435	201.686872782082	4.016881436811
1	439	202.425669037885	2.896024257067
1	447	205.690668884361	4.003796102279
1	455	208.378835931876	5.953166893991
1	461	210.470752587625	4.780083703264
1	467	215.650499373143	7.271663441267
1	473	216.360416574415	5.88966398679
1	477	217.195624828052	1.545125454909
1	485	227.72801395124	11.367597376825
1	489	230.945430147358	13.749805319306
1	495	234.471750119873	6.743736168633
1	503	247.811378115608	16.86594796825
1	509	251.903580885036	17.431830765163
1	513	254.424602263281	6.613224147673
1	519	256.412774576918	4.509193691882
1	525	257.452283771759	3.027681508478
1	533	259.48149927616	3.068724699242
1	539	262.221445790436	4.769162018677
1	545	269.627969726034	10.146470449874
1	549	270.189804371884	7.968358581448
1	557	271.779366754755	2.151397028721
1	563	279.661923631976	9.472119260092
1	569	280.754058862824	8.974692108069
1	575	282.638098286618	2.976174654642
1	579	284.717066816121	3.963007953297
1	587	289.288082045345	6.649983758727
1	591	289.319100742069	4.602033925948
1	597	291.881948135058	2.593866089713
1	605	296.469043753423	7.149943011354
1	611	304.887977354456	13.006029219398
1	617	308.835468627217	12.366424873794
1	623	318.863005031176	13.97502767672
1	627	319.675381263032	10.839912635815
1	631	320.252830852415	1.389825821239
1	639	325.192237839474	5.516856576442
1	643	325.697773095935	5.44494224352
1	653	330.503225593446	5.310987753972
1	659	340.618942639394	14.921169543459
1	665	341.516012038796	11.01278644535
1	669	342.809238428055	2.190295788661
1	673	344.44185038241	2.925838343614
1	683	347.759473078099	4.950234650044
1	687	348.739131300924	4.297280918514
1	693	351.055057509546	3.295584431447
1	697	351.325802633845	2.586671332921
1	705	357.207985672999	6.152928163453
1	709	357.878145189475	6.55234255563
1	717	360.569157686725	3.361172013726
1	725	367.54036977087	9.662224581395
1	729	368.932894662976	8.363736976251
1	737	377.043881733516	9.503511962646
1	743	381.753526988632	12.820632325656
1	747	382.640036443719	5.596154710203
1	753	386.766822591743	5.013295603111
1	761	388.405330391259	5.76529394754
1	767	392.710016412024	5.943193820281
1	773	397.033287491138	8.627957099879
1	777	397.487984278164	4.77796786614
1	783	400.944127466428	3.91083997529
1	787	401.076825238909	3.588840960745
1	795	403.120007602061	2.175880135633
1	801	403.716535268669	2.63971002976
1	807	403.85221417368	0.732206571619
1	813	405.509200348078	1.792665079409
1	821	410.533098167921	6.680883994241
1	827	411.636068502194	6.126868154116
1	831	412.44116774856	1.908069580639
1	835	412.549053655625	0.912985153431
1	839	413.404453918443	0.963286169883
1	849	417.952223311814	5.403169656189
1	857	421.616446301373	8.21199238293
1	863	424.251157091845	6.298933780031
1	869	436.801713658633	15.18526735726
1	873	439.658152237624	15.406995145779
1	881	449.220846313413	12.41913265478
1	885	451.223462748987	11.565310511363
1	893	460.337165063219	11.116318749806
1	899	464.491964776968	13.268502027981
1	903	466.346662949267	6.009497886048
1	909	467.863463456347	3.371498679379
1	913	470.410464117333	4.063801168066
1	923	476.788589743279	8.925126286932
1	927	477.700073685041	7.289609567708
1	933	481.149973291145	4.361383547866
1	941	483.406112849495	5.706039164454
1	947	483.840018453459	2.690045162314
1	953	490.804725980897	7.398613131402
1	959	495.363592182201	11.523573728742
1	963	497.060521293442	6.255795312545
1	969	499.171668695617	3.808076513416
1	977	502.802315791987	5.741794498545
1	981	504.736834444888	5.565165749271
1	987	505.957279128305	3.154963336318
1	991	508.225793224877	3.488958779989
1	995	508.479920615466	2.522641487161
1	1003	512.425269585046	4.199476360169
1	1009	518.789930941027	10.310010325561
1	1013	519.053592470324	6.628322885278
1	1019	520.741044605823	1.951113664796
1	1025	523.064385262586	4.010792792262
1	1037	531.412026986194	10.670982380371
1	1043	534.192530212919	11.128144950333
1	1047	534.44973707235	3.037710086156
1	1055	541.212498031094	7.019967818175
1	1059	541.745399765524	7.295662693174
1	1065	542.758197645462	1.545699614368
1	1069	544.590442425465	2.845042659941
1	1075	548.739338071275	5.981140425813
1	1079	549.202472124201	4.612029698736
1	1083	550.51532490848	1.775986837205
1	1089	552.080482129304	2.878010005103
1	1101	556.114036719272	5.598711810792
1	1105	559.70587206383	7.625389934526
1	1109	559.980291645735	3.866254926463
1	1113	560.218524682342	0.512652618512
1	1117	560.631563435974	0.651271790239
1	1131	564.418833207487	4.200308525145
1	1137	566.846896831529	6.215333395555
1	1143	570.378943231942	5.960110024455
1	1147	570.389876997472	3.542980165943
1	1155	573.141965546582	2.76302231464
1	1159	574.816697220002	4.42682022253
1	1163	574.855141014612	1.71317546803
1	1169	576.591753817666	1.775056597664
1	1177	577.558034593973	2.702893579361
1	1185	579.72271310854	3.130959290874
1	1193	588.073862679328	10.515828085355
1	1197	590.094533635461	10.371820526921
1	1203	592.025058023054	3.951195343726
1	1209	592.8035487072	2.709015071739
1	1213	595.058575643159	3.033517620105
1	1221	600.639462720279	7.835914013079
1	1227	602.739664460847	7.681088817688
1	1235	606.809981272612	6.170518552333
1	1239	607.19146518561	4.451800724763
1	1243	607.260980865426	0.450999592814
1	1249	609.418346015624	2.226880830014
1	1253	610.260398091571	2.999417226145
1	1265	618.591311204667	9.172965189043
1	1271	623.232147762307	12.971749670736
1	1275	623.911354059501	5.320042854834
1	1283	628.625373544664	5.393225782357
1	1287	629.214578052604	5.303223993103
1	1291	629.411597996111	0.786224451447
1	1299	631.292124719515	2.077546666911
1	1303	632.37254591453	2.960947918419
1	1307	632.737000998892	1.444876279377
1	1315	633.606402932991	1.233857018461
1	1319	634.052952095676	1.315951096784
1	1325	634.578162688657	0.971759755666
1	1331	636.558861310851	2.505909215175
1	1335	636.98848386126	2.410321172603
1	1341	638.223885182533	1.665023871682
1	1355	647.905084323526	10.916600462266
1	1359	648.425258202296	10.201373019763
1	1367	653.922728030499	6.017643706973
1	1373	656.082110335343	7.656852133047
1	1379	662.84307745325	8.920349422751
1	1383	663.589127694064	7.507017358721
1	1391	665.714931125629	2.871853672379
1	1395	667.468047422262	3.878919728198
1	1403	670.433953077666	4.719021952037
1	1407	670.455483585202	2.98743616294
1	1415	670.832990445814	0.399037368148
1	1421	673.386728057107	2.931244471905
1	1427	686.728388319664	15.89539787385
1	1431	687.143159956258	13.756431899151
1	1435	687.402931599893	0.674543280229
1	1439	688.422165630224	1.279005673966
1	1449	692.762847386271	5.359915786378
1	1453	693.497430368088	5.075264737864
1	1461	695.406875765062	2.644028378791
1	1465	695.662375594358	2.16494522627
1	1473	698.761786711104	3.354910946042
1	1477	699.818867836875	4.156492242517
1	1485	701.871424238146	3.109637527042
1	1493	705.322533478526	5.503665641651
1	1497	707.400612624934	5.529188386788
1	1501	708.767315753298	3.444782274772
1	1507	710.031897225682	2.631284600748
1	1511	710.437867080311	1.670551327013
1	1517	711.537190918958	1.505293693276
1	1523	714.593500544886	4.155633464575
1	1531	715.047697310942	3.510506391984
1	1539	716.634178548916	2.04067800403
1	1543	717.739231398081	2.691534087139
1	1549	722.241893653816	5.6077151049
1	1559	727.494897450716	9.755666052635
1	1565	732.000792980356	9.75889932654
1	1569	732.704458381623	5.209560930907
1	1575	733.640653239689	1.639860259333
1	1579	734.780180517133	2.07572213551
1	1587	737.252153540772	3.611500301083
1	1595	748.932877780851	14.152697263718
1	1599	749.242897632048	11.990744091276
1	1607	753.011167336266	4.078289555415
1	1613	758.504125753793	9.261228121745
1	1617	760.184026909632	7.172859573366
1	1621	760.427860714363	1.92373496057
1	1631	776.969518266189	16.785491356557
1	1635	779.614984338697	19.187123624334
1	1641	781.503333486545	4.533815220356
1	1647	782.462330100776	2.847345762079
1	1655	785.698451767553	4.195118281008
1	1659	785.985569618655	3.523239517879
1	1665	787.136419855016	1.437968087463
1	1671	790.401360834402	4.415791215747
1	1675	791.10322250372	3.966802648704
1	1679	792.388288073499	1.986927239097
1	1689	798.193952421905	7.090729918185
1	1697	802.168997396599	9.7807093231
1	1701	802.578265686562	4.384313264657
1	1707	804.103543697332	1.934546300733
1	1711	804.17988867456	1.601622987998
1	1715	805.510404834418	1.406861137086
1	1719	805.75329978327	1.57341110871
1	1733	813.621031251405	8.110626416987
1	1737	816.198443987606	10.445144204336
1	1743	819.988669876699	6.367638625294
1	1751	821.18519589204	4.986751904434
1	1755	821.439751928353	1.451082051654
1	1761	822.403162341233	1.217966449193
1	1767	823.903724955579	2.463973027226
1	1773	826.28781706442	3.884654723187
1	1777	826.411964279132	2.508239323553
1	1785	830.711159844218	4.423342779798
1	1791	831.949045228356	5.537080949224
1	1797	833.773754724918	3.0625948807
1	1805	835.906309614349	3.957264385993
1	1809	837.22854591079	3.454791185872
1	1817	845.902645253789	9.99633563944
1	1821	847.345064813562	10.116518902772
1	1829	851.212616355437	5.309971101648
1	1833	852.629130551333	5.284065737771
1	1837	853.320289991999	2.107673636562
1	1847	861.101511142755	8.472380591422
1	1851	861.9701112526	8.649821260601
1	1859	870.366169444128	9.264658301373
1	1865	872.877027597031	10.906916344431
1	1869	873.659577425131	3.293407981003
1	1877	878.385943304702	5.508915707671
1	1881	880.227868234082	6.568290808951
1	1887	881.94674032088	3.560797016178
1	1891	886.643264057237	6.415395823155
1	1897	889.071589518147	7.124849197267
1	1903	889.458159525884	2.814895468647
1	1911	890.693002422087	1.62141290394
1	1915	893.204663523466	3.746503997582
1	1921	893.547143364652	2.854140942565
1	1931	901.778043789655	8.573380266189
1	1935	902.497461462885	8.950318098233
1	1943	908.843954935087	7.065911145432
1	1947	911.367484523199	8.870023060314
1	1955	913.693605184301	4.849650249214
1	1961	916.882758108576	5.515273585377
1	1965	918.198511232491	4.50490604819
1	1973	922.121009880042	5.238251771466
1	1977	924.618169621502	6.419658389011
1	1983	927.861504240852	5.74049436081
1	1989	929.114321527474	4.496151905972
1	1995	929.829804894915	1.968300654063
1	2003	933.485218229569	4.370896702095
1	2009	936.934537758115	7.1047328632
1	2015	939.422958801164	5.937740571595
1	2021	951.228604318705	14.29406656059
1	2027	952.95178169872	13.528822897556
1	2031	953.040968995062	1.812364676357
1	2035	954.120280112353	1.168498413633
1	2045	957.866866147557	4.825897152495
1	2049	960.809349587121	6.689069474768
1	2055	961.676981752049	3.810115604492
1	2061	970.422597236142	9.613247649021
1	2069	977.055244977202	15.378263225153
1	2075	979.193939460709	8.771342224567
1	2081	981.920687823226	4.865442846024
1	2087	984.00045119137	4.806511730661
1	2093	988.117487956812	6.196800133586