version 3
run General-4-20221103-10:28:21-6760
attr configname General
attr datetime 20221103-10:28:21
attr datetimef 20221103-102821
attr experiment General
attr inifile block.ini
attr iterationvars "$0=2, $1=10"
attr iterationvarsd 2/10
attr iterationvarsf 2,10-
attr measurement "$0=2, $1=10"
attr network Block
attr processid 6760
attr repetition 4
attr replication #4
attr resultdir results
attr runnumber 4
attr seedset 4
config network Block
config repeat 5
config sim-time-limit 1000s
config warmup-period 100s
config **.alloca.resourceModuleName "\"risorse\""
config **.dealloca.resourceModuleName "\"risorse\""
config **.is.delay exponential(3s)
config **.servente.serviceTime exponential(2s)
config **.dealloca.resourceAmount 2
config **.alloca.resourceAmount 2
config **.risorse.amount 6
config **.sorgente.numJobs (10)
config **.result-recording-modes all

vector 0 Block.servente queueLength:vector ETV
attr interpolationmode sample-hold
attr recordingmode vector
attr title "queue length"
vector 1 Block.servente queueingTime:vector ETV
attr interpolationmode none
attr recordingmode vector
attr title "queueing time at dequeue"
attr unit s
vector 2 Block.alloca queueLength:vector ETV
attr interpolationmode sample-hold
attr recordingmode vector
attr title "queue length"
vector 3 Block.alloca queueingTime:vector ETV
attr interpolationmode none
attr recordingmode vector
attr title "queueing time at dequeue"
attr unit s
vector 4 Block.risorse amount:vector ETV
attr interpolationmode sample-hold
attr recordingmode vector
attr title "available resource"
vector 5 Block.is delayedJobs:vector ETV
attr interpolationmode sample-hold
attr recordingmode vector
attr title "number of delayed jobs"
0	357	100.130014087547	1
0	359	100.130014087547	2
0	363	102.525767632396	1
0	365	102.525767632396	2
0	367	103.407039737979	1
0	369	103.407039737979	2
0	377	108.105891991344	1
0	379	108.105891991344	2
0	381	109.05044672186	1
0	383	109.05044672186	2
0	387	112.801454293549	1
0	389	112.801454293549	2
0	393	115.445774723959	1
0	395	115.445774723959	2
0	397	117.846938683008	1
0	399	117.846938683008	2
0	407	120.061295676329	1
0	409	120.061295676329	2
0	411	120.228013764201	1
0	413	120.228013764201	2
0	415	120.319364245102	1
0	417	120.319364245102	2
0	419	120.519442703649	1
0	421	120.519442703649	2
0	423	121.009787249394	1
0	425	121.009787249394	2
0	435	124.300088901897	1
0	437	124.300088901897	2
0	439	124.511655505205	1
0	441	124.511655505205	2
0	443	124.644472313225	1
0	445	124.644472313225	2
0	455	130.407518590124	1
0	457	130.407518590124	2
0	459	130.763074511836	1
0	461	130.763074511836	2
0	465	132.555431433462	1
0	467	132.555431433462	2
0	473	138.561132930426	1
0	475	138.561132930426	2
0	477	139.474975032015	1
0	479	139.474975032015	2
0	481	139.518686638477	1
0	483	139.518686638477	2
0	489	140.989436970474	1
0	491	140.989436970474	2
0	493	141.722924100681	1
0	495	141.722924100681	2
0	503	145.304226881512	1
0	505	145.304226881512	2
0	509	150.604787836875	1
0	511	150.604787836875	2
0	513	150.880865959406	1
0	515	150.880865959406	2
0	519	154.438182483937	1
0	521	154.438182483937	2
0	525	157.528792174443	1
0	527	157.528792174443	2
0	533	159.868863387909	1
0	535	159.868863387909	2
0	537	161.971029850645	1
0	539	161.971029850645	2
0	543	167.509545765771	1
0	545	167.509545765771	2
0	551	168.048317816616	1
0	553	168.048317816616	2
0	555	169.361793815449	1
0	557	169.361793815449	2
0	561	174.607611746866	1
0	563	174.607611746866	2
0	565	174.998201599106	1
0	567	174.998201599106	2
0	569	175.330377479785	1
0	571	175.330377479785	2
0	581	182.194492633396	1
0	583	182.194492633396	2
0	585	182.967629141359	1
0	587	182.967629141359	2
0	593	187.307186193512	1
0	595	187.307186193512	2
0	597	188.883759365392	1
0	599	188.883759365392	2
0	605	189.811345063014	1
0	607	189.811345063014	2
0	609	190.105854330014	1
0	611	190.105854330014	2
0	613	190.344571136979	1
0	615	190.344571136979	2
0	617	190.494628787287	1
0	619	190.494628787287	2
0	621	190.924084606844	1
0	623	190.924084606844	2
0	625	190.929946379571	1
0	627	190.929946379571	2
0	637	195.117722876441	1
0	639	195.117722876441	2
0	645	200.651238561692	1
0	647	200.651238561692	2
0	649	202.048153362531	1
0	651	202.048153362531	2
0	657	204.80080034246	1
0	659	204.80080034246	2
0	663	206.140330091987	1
0	665	206.140330091987	2
0	667	206.148187300011	1
0	669	206.148187300011	2
0	675	207.389205507707	1
0	677	207.389205507707	2
0	679	207.703594887908	1
0	681	207.703594887908	2
0	685	208.44223128343	1
0	687	208.44223128343	2
0	691	211.240683170586	1
0	693	211.240683170586	2
0	701	214.056613284349	1
0	703	214.056613284349	2
0	705	219.046813547297	1
0	707	219.046813547297	2
0	713	224.414183109733	1
0	715	224.414183109733	2
0	717	224.603115970882	1
0	719	224.603115970882	2
0	721	225.037699161262	1
0	723	225.037699161262	2
0	727	226.686346265378	1
0	729	226.686346265378	2
0	731	226.707309086404	1
0	733	226.707309086404	2
0	735	227.229770840421	1
0	737	227.229770840421	2
0	739	227.304887070668	1
0	741	227.304887070668	2
0	745	227.48120004251	1
0	747	227.48120004251	2
0	753	229.652409167673	1
0	755	229.652409167673	2
0	759	231.404355848626	1
0	761	231.404355848626	2
0	769	233.999919579422	1
0	771	233.999919579422	2
0	779	238.694595473877	1
0	781	238.694595473877	2
0	783	238.728313431311	1
0	785	238.728313431311	2
0	791	243.268391548046	1
0	793	243.268391548046	2
0	795	244.670351030867	1
0	797	244.670351030867	2
0	803	246.578437212358	1
0	805	246.578437212358	2
0	807	246.867900741255	1
0	809	246.867900741255	2
0	811	248.145097761679	1
0	813	248.145097761679	2
0	817	250.158456067113	1
0	819	250.158456067113	2
0	825	251.512167832122	1
0	827	251.512167832122	2
0	833	256.871509326389	1
0	835	256.871509326389	2
0	839	262.365938782067	1
0	841	262.365938782067	2
0	843	263.752078965884	1
0	845	263.752078965884	2
0	849	264.806109201445	1
0	851	264.806109201445	2
0	855	268.13640282744	1
0	857	268.13640282744	2
0	861	269.586800315857	1
0	863	269.586800315857	2
0	865	270.932270725349	1
0	867	270.932270725349	2
0	873	275.018754444432	1
0	875	275.018754444432	2
0	881	279.586119748537	1
0	883	279.586119748537	2
0	885	279.885863640699	1
0	887	279.885863640699	2
0	891	282.501233655935	1
0	893	282.501233655935	2
0	895	284.167636046125	1
0	897	284.167636046125	2
0	903	288.600225887743	1
0	905	288.600225887743	2
0	909	289.360629270479	1
0	911	289.360629270479	2
0	913	292.164301897216	1
0	915	292.164301897216	2
0	917	292.819177669406	1
0	919	292.819177669406	2
0	921	293.073882570849	1
0	923	293.073882570849	2
0	929	293.588785923233	1
0	931	293.588785923233	2
0	933	296.562975405803	1
0	935	296.562975405803	2
0	945	299.662095720826	1
0	947	299.662095720826	2
0	953	301.765887608091	1
0	955	301.765887608091	2
0	957	302.50054087415	1
0	959	302.50054087415	2
0	965	314.408098524889	1
0	967	314.408098524889	2
0	969	315.106171361481	1
0	971	315.106171361481	2
0	975	317.312088310863	1
0	977	317.312088310863	2
0	979	317.925846662345	1
0	981	317.925846662345	2
0	985	319.02347613391	1
0	987	319.02347613391	2
0	991	323.215885111415	1
0	993	323.215885111415	2
0	995	325.032321356048	1
0	997	325.032321356048	2
0	999	325.690753609552	1
0	1001	325.690753609552	2
0	1009	328.457287621801	1
0	1011	328.457287621801	2
0	1017	331.059199978304	1
0	1019	331.059199978304	2
0	1021	333.400181220796	1
0	1023	333.400181220796	2
0	1029	334.601757349385	1
0	1031	334.601757349385	2
0	1033	335.926621398642	1
0	1035	335.926621398642	2
0	1037	336.965727137129	1
0	1039	336.965727137129	2
0	1047	343.037603575579	1
0	1049	343.037603575579	2
0	1051	343.070845544852	1
0	1053	343.070845544852	2
0	1059	343.822755128324	1
0	1061	343.822755128324	2
0	1067	353.056617296231	1
0	1069	353.056617296231	2
0	1073	357.365678414103	1
0	1075	357.365678414103	2
0	1077	357.405966199067	1
0	1079	357.405966199067	2
0	1081	357.622908542024	1
0	1083	357.622908542024	2
0	1087	357.820518514731	1
0	1089	357.820518514731	2
0	1093	358.43845884676	1
0	1095	358.43845884676	2
0	1099	358.872154885604	1
0	1101	358.872154885604	2
0	1105	359.874355466405	1
0	1107	359.874355466405	2
0	1113	362.9904435417	1
0	1115	362.9904435417	2
0	1117	363.174916602797	1
0	1119	363.174916602797	2
0	1121	364.124048696765	1
0	1123	364.124048696765	2
0	1125	365.118117874286	1
0	1127	365.118117874286	2
0	1129	365.83824308485	1
0	1131	365.83824308485	2
0	1137	367.098709810129	1
0	1139	367.098709810129	2
0	1151	376.446403262778	1
0	1153	376.446403262778	2
0	1155	379.197099785109	1
0	1157	379.197099785109	2
0	1159	379.372360120113	1
0	1161	379.372360120113	2
0	1167	381.283265490863	1
0	1169	381.283265490863	2
0	1171	381.717665882186	1
0	1173	381.717665882186	2
0	1175	382.676430473447	1
0	1177	382.676430473447	2
0	1185	388.567921198301	1
0	1187	388.567921198301	2
0	1189	389.104668751939	1
0	1191	389.104668751939	2
0	1197	390.145610108039	1
0	1199	390.145610108039	2
0	1205	397.275631784777	1
0	1207	397.275631784777	2
0	1209	397.365464406337	1
0	1211	397.365464406337	2
0	1215	398.03709417395	1
0	1217	398.03709417395	2
0	1219	398.667787503827	1
0	1221	398.667787503827	2
0	1225	399.910742390886	1
0	1227	399.910742390886	2
0	1233	401.016790410649	1
0	1235	401.016790410649	2
0	1241	403.83509190262	1
0	1243	403.83509190262	2
0	1245	404.414455954338	1
0	1247	404.414455954338	2
0	1253	408.395078572311	1
0	1255	408.395078572311	2
0	1257	410.166768491754	1
0	1259	410.166768491754	2
0	1265	412.629763979636	1
0	1267	412.629763979636	2
0	1269	412.681223768375	1
0	1271	412.681223768375	2
0	1273	412.974411154865	1
0	1275	412.974411154865	2
0	1279	414.555515924729	1
0	1281	414.555515924729	2
0	1285	415.162711293886	1
0	1287	415.162711293886	2
0	1291	415.570524273674	1
0	1293	415.570524273674	2
0	1295	415.799082820361	1
0	1297	415.799082820361	2
0	1299	415.989006495648	1
0	1301	415.989006495648	2
0	1303	417.488502535556	1
0	1305	417.488502535556	2
0	1307	417.945597220726	1
0	1309	417.945597220726	2
0	1315	418.638652597004	1
0	1317	418.638652597004	2
0	1327	423.824182842397	1
0	1329	423.824182842397	2
0	1331	424.222240055728	1
0	1333	424.222240055728	2
0	1339	426.268661200016	1
0	1341	426.268661200016	2
0	1343	426.480605340422	1
0	1345	426.480605340422	2
0	1347	427.626613887273	1
0	1349	427.626613887273	2
0	1355	430.298659718714	1
0	1357	430.298659718714	2
0	1361	433.820438171972	1
0	1363	433.820438171972	2
0	1367	434.805919567861	1
0	1369	434.805919567861	2
0	1375	435.043203588595	1
0	1377	435.043203588595	2
0	1383	436.641442577293	1
0	1385	436.641442577293	2
0	1389	439.781882542682	1
0	1391	439.781882542682	2
0	1397	452.229677242021	1
0	1399	452.229677242021	2
0	1403	455.843925498454	1
0	1405	455.843925498454	2
0	1409	457.350027249628	1
0	1411	457.350027249628	2
0	1415	458.415628013807	1
0	1417	458.415628013807	2
0	1419	458.544847793438	1
0	1421	458.544847793438	2
0	1423	458.981220494139	1
0	1425	458.981220494139	2
0	1433	460.19086769898	1
0	1435	460.19086769898	2
0	1437	461.051606310558	1
0	1439	461.051606310558	2
0	1441	461.457112003571	1
0	1443	461.457112003571	2
0	1449	465.528741069885	1
0	1451	465.528741069885	2
0	1455	466.397729622182	1
0	1457	466.397729622182	2
0	1459	466.758764252918	1
0	1461	466.758764252918	2
0	1467	467.446112054898	1
0	1469	467.446112054898	2
0	1475	470.185596776019	1
0	1477	470.185596776019	2
0	1479	476.244944104061	1
0	1481	476.244944104061	2
0	1485	478.419032612034	1
0	1487	478.419032612034	2
0	1489	479.191430369174	1
0	1491	479.191430369174	2
0	1495	480.597259230043	1
0	1497	480.597259230043	2
0	1499	480.787363696503	1
0	1501	480.787363696503	2
0	1505	482.788288019889	1
0	1507	482.788288019889	2
0	1513	484.319810506376	1
0	1515	484.319810506376	2
0	1517	485.017346173378	1
0	1519	485.017346173378	2
0	1527	486.720617502716	1
0	1529	486.720617502716	2
0	1531	487.747940412971	1
0	1533	487.747940412971	2
0	1541	490.947846914485	1
0	1543	490.947846914485	2
0	1547	491.826785390194	1
0	1549	491.826785390194	2
0	1551	492.561404797459	1
0	1553	492.561404797459	2
0	1555	492.848850204666	1
0	1557	492.848850204666	2
0	1565	497.24548942682	1
0	1567	497.24548942682	2
0	1569	498.289787835895	1
0	1571	498.289787835895	2
0	1577	502.296148676729	1
0	1579	502.296148676729	2
0	1583	504.916410999795	1
0	1585	504.916410999795	2
0	1587	506.731584824505	1
0	1589	506.731584824505	2
0	1595	510.108183347882	1
0	1597	510.108183347882	2
0	1599	512.296966406642	1
0	1601	512.296966406642	2
0	1603	512.616120167856	1
0	1605	512.616120167856	2
0	1611	514.55428652099	1
0	1613	514.55428652099	2
0	1615	514.697212863023	1
0	1617	514.697212863023	2
0	1625	519.286930388101	1
0	1627	519.286930388101	2
0	1631	522.357547100796	1
0	1633	522.357547100796	2
0	1635	522.365307412224	1
0	1637	522.365307412224	2
0	1643	527.78769656132	1
0	1645	527.78769656132	2
0	1647	528.279283163528	1
0	1649	528.279283163528	2
0	1651	528.894823411372	1
0	1653	528.894823411372	2
0	1661	533.158847896793	1
0	1663	533.158847896793	2
0	1667	539.487611441673	1
0	1669	539.487611441673	2
0	1671	540.039194417587	1
0	1673	540.039194417587	2
0	1675	541.389558114645	1
0	1677	541.389558114645	2
0	1681	544.088635423628	1
0	1683	544.088635423628	2
0	1691	545.495032119214	1
0	1693	545.495032119214	2
0	1695	545.562268683976	1
0	1697	545.562268683976	2
0	1699	546.026039545112	1
0	1701	546.026039545112	2
0	1709	549.7044248791	1
0	1711	549.7044248791	2
0	1715	553.44853698946	1
0	1717	553.44853698946	2
0	1719	560.824693145316	1
0	1721	560.824693145316	2
0	1723	561.316917978043	1
0	1725	561.316917978043	2
0	1733	568.04637489161	1
0	1735	568.04637489161	2
0	1737	569.718009745131	1
0	1739	569.718009745131	2
0	1745	575.360975312398	1
0	1747	575.360975312398	2
0	1749	575.569917790414	1
0	1751	575.569917790414	2
0	1757	582.08947929354	1
0	1759	582.08947929354	2
0	1761	583.043225520488	1
0	1763	583.043225520488	2
0	1765	583.283851022773	1
0	1767	583.283851022773	2
0	1769	583.385016590908	1
0	1771	583.385016590908	2
0	1773	583.81911878801	1
0	1775	583.81911878801	2
0	1787	587.614227418357	1
0	1789	587.614227418357	2
0	1791	588.970019277225	1
0	1793	588.970019277225	2
0	1799	596.838304724525	1
0	1801	596.838304724525	2
0	1803	598.990258709143	1
0	1805	598.990258709143	2
0	1807	599.626388742655	1
0	1809	599.626388742655	2
0	1817	601.700191218455	1
0	1819	601.700191218455	2
0	1821	602.254719333256	1
0	1823	602.254719333256	2
0	1825	604.314418856357	1
0	1827	604.314418856357	2
0	1829	604.551019730446	1
0	1831	604.551019730446	2
0	1835	605.424473335374	1
0	1837	605.424473335374	2
0	1841	606.93846651461	1
0	1843	606.93846651461	2
0	1845	606.941180097311	1
0	1847	606.941180097311	2
0	1855	608.491839953464	1
0	1857	608.491839953464	2
0	1859	609.378899506227	1
0	1861	609.378899506227	2
0	1869	610.837725750143	1
0	1871	610.837725750143	2
0	1873	611.318592726047	1
0	1875	611.318592726047	2
0	1883	616.108486653249	1
0	1885	616.108486653249	2
0	1889	619.827222783788	1
0	1891	619.827222783788	2
0	1893	620.388766190707	1
0	1895	620.388766190707	2
0	1901	625.221534989009	1
0	1903	625.221534989009	2
0	1907	628.642949181729	1
0	1909	628.642949181729	2
0	1911	629.567773562667	1
0	1913	629.567773562667	2
0	1917	630.62954566905	1
0	1919	630.62954566905	2
0	1925	639.927580548181	1
0	1927	639.927580548181	2
0	1931	640.223485380427	1
0	1933	640.223485380427	2
0	1935	640.565283784204	1
0	1937	640.565283784204	2
0	1939	640.826526354487	1
0	1941	640.826526354487	2
0	1943	641.038308639515	1
0	1945	641.038308639515	2
0	1953	643.773640216092	1
0	1955	643.773640216092	2
0	1957	645.919977973011	1
0	1959	645.919977973011	2
0	1961	647.245426748544	1
0	1963	647.245426748544	2
0	1965	648.259916970551	1
0	1967	648.259916970551	2
0	1973	649.390326465651	1
0	1975	649.390326465651	2
0	1979	653.443942341513	1
0	1981	653.443942341513	2
0	1987	656.168859660305	1
0	1989	656.168859660305	2
0	1995	657.601676546826	1
0	1997	657.601676546826	2
0	2001	660.339121697353	1
0	2003	660.339121697353	2
0	2005	660.787866067301	1
0	2007	660.787866067301	2
0	2015	670.709045732254	1
0	2017	670.709045732254	2
0	2021	671.761198626677	1
0	2023	671.761198626677	2
0	2025	673.988129424105	1
0	2027	673.988129424105	2
0	2031	674.668657867176	1
0	2033	674.668657867176	2
0	2037	677.468544791128	1
0	2039	677.468544791128	2
0	2043	679.088087770607	1
0	2045	679.088087770607	2
0	2049	679.920228547934	1
0	2051	679.920228547934	2
0	2053	680.082369294107	1
0	2055	680.082369294107	2
0	2059	680.200980623595	1
0	2061	680.200980623595	2
0	2063	680.890513806882	1
0	2065	680.890513806882	2
0	2069	681.451746474075	1
0	2071	681.451746474075	2
0	2079	684.630162381027	1
0	2081	684.630162381027	2
0	2083	684.631724779983	1
0	2085	684.631724779983	2
0	2093	693.735437633013	1
0	2095	693.735437633013	2
0	2099	697.830549098388	1
0	2101	697.830549098388	2
0	2105	704.565840850353	1
0	2107	704.565840850353	2
0	2111	706.035703781806	1
0	2113	706.035703781806	2
0	2117	708.815773933862	1
0	2119	708.815773933862	2
0	2123	709.091333588645	1
0	2125	709.091333588645	2
0	2129	714.097881420929	1
0	2131	714.097881420929	2
0	2133	714.787215380834	1
0	2135	714.787215380834	2
0	2137	715.030045098596	1
0	2139	715.030045098596	2
0	2145	717.125685068342	1
0	2147	717.125685068342	2
0	2151	719.922949747475	1
0	2153	719.922949747475	2
0	2155	721.75319367568	1
0	2157	721.75319367568	2
0	2159	721.841683713844	1
0	2161	721.841683713844	2
0	2167	725.539721587628	1
0	2169	725.539721587628	2
0	2177	728.600733718212	1
0	2179	728.600733718212	2
0	2181	730.112199868534	1
0	2183	730.112199868534	2
0	2185	731.091932024712	1
0	2187	731.091932024712	2
0	2193	732.793717137701	1
0	2195	732.793717137701	2
0	2197	733.452364323248	1
0	2199	733.452364323248	2
0	2203	734.651293119527	1
0	2205	734.651293119527	2
0	2207	735.023031597596	1
0	2209	735.023031597596	2
0	2211	735.756324050343	1
0	2213	735.756324050343	2
0	2223	738.882428573894	1
0	2225	738.882428573894	2
0	2229	741.437481587426	1
0	2231	741.437481587426	2
0	2233	742.78851886092	1
0	2235	742.78851886092	2
0	2239	743.790562558493	1
0	2241	743.790562558493	2
0	2247	746.227146427829	1
0	2249	746.227146427829	2
0	2253	751.357991868991	1
0	2255	751.357991868991	2
0	2257	752.618030026402	1
0	2259	752.618030026402	2
0	2261	753.681675345554	1
0	2263	753.681675345554	2
0	2265	754.319037279356	1
0	2267	754.319037279356	2
0	2275	755.483893647586	1
0	2277	755.483893647586	2
0	2285	762.921490600624	1
0	2287	762.921490600624	2
0	2289	763.645671609154	1
0	2291	763.645671609154	2
0	2297	767.903561093255	1
0	2299	767.903561093255	2
0	2301	768.659018709541	1
0	2303	768.659018709541	2
0	2305	768.739253302509	1
0	2307	768.739253302509	2
0	2313	770.947131697334	1
0	2315	770.947131697334	2
0	2321	774.779241907507	1
0	2323	774.779241907507	2
0	2325	778.346245966641	1
0	2327	778.346245966641	2
0	2331	778.835029120209	1
0	2333	778.835029120209	2
0	2335	780.209589135013	1
0	2337	780.209589135013	2
0	2341	780.991888307314	1
0	2343	780.991888307314	2
0	2345	781.105191985432	1
0	2347	781.105191985432	2
0	2355	783.39621746272	1
0	2357	783.39621746272	2
0	2359	785.029902677394	1
0	2361	785.029902677394	2
0	2365	789.573355685954	1
0	2367	789.573355685954	2
0	2373	793.335134047356	1
0	2375	793.335134047356	2
0	2377	793.951978631598	1
0	2379	793.951978631598	2
0	2383	795.822450546682	1
0	2385	795.822450546682	2
0	2391	799.424203931621	1
0	2393	799.424203931621	2
0	2395	799.743146026165	1
0	2397	799.743146026165	2
0	2403	802.836522748861	1
0	2405	802.836522748861	2
0	2409	804.283009059732	1
0	2411	804.283009059732	2
0	2417	805.947170676088	1
0	2419	805.947170676088	2
0	2421	806.200894945165	1
0	2423	806.200894945165	2
0	2425	806.241426039116	1
0	2427	806.241426039116	2
0	2433	808.156286948459	1
0	2435	808.156286948459	2
0	2437	808.362647947788	1
0	2439	808.362647947788	2
0	2443	810.519433617011	1
0	2445	810.519433617011	2
0	2449	812.225041677849	1
0	2451	812.225041677849	2
0	2453	812.76536104163	1
0	2455	812.76536104163	2
0	2459	814.464154762287	1
0	2461	814.464154762287	2
0	2471	819.400531470887	1
0	2473	819.400531470887	2
0	2475	819.529123651895	1
0	2477	819.529123651895	2
0	2479	820.014439677216	1
0	2481	820.014439677216	2
0	2485	820.541588444408	1
0	2487	820.541588444408	2
0	2495	824.949890565835	1
0	2497	824.949890565835	2
0	2499	825.068566545615	1
0	2501	825.068566545615	2
0	2503	827.199895114114	1
0	2505	827.199895114114	2
0	2513	830.868047944693	1
0	2515	830.868047944693	2
0	2519	832.981404664083	1
0	2521	832.981404664083	2
0	2523	836.279196685534	1
0	2525	836.279196685534	2
0	2527	836.957879510249	1
0	2529	836.957879510249	2
0	2535	840.871886604199	1
0	2537	840.871886604199	2
0	2539	841.086534856052	1
0	2541	841.086534856052	2
0	2549	851.48951906604	1
0	2551	851.48951906604	2
0	2553	854.81286318339	1
0	2555	854.81286318339	2
0	2557	854.844429982736	1
0	2559	854.844429982736	2
0	2563	855.438105490935	1
0	2565	855.438105490935	2
0	2571	859.389325866886	1
0	2573	859.389325866886	2
0	2579	859.881007222058	1
0	2581	859.881007222058	2
0	2583	860.290795107793	1
0	2585	860.290795107793	2
0	2587	860.385343217083	1
0	2589	860.385343217083	2
0	2593	860.58907740538	1
0	2595	860.58907740538	2
0	2599	861.912715568054	1
0	2601	861.912715568054	2
0	2603	862.004658315002	1
0	2605	862.004658315002	2
0	2611	866.493775929172	1
0	2613	866.493775929172	2
0	2615	867.500102499127	1
0	2617	867.500102499127	2
0	2623	868.06828631617	1
0	2625	868.06828631617	2
0	2633	871.52374907305	1
0	2635	871.52374907305	2
0	2639	875.685473023107	1
0	2641	875.685473023107	2
0	2643	877.889113734341	1
0	2645	877.889113734341	2
0	2651	881.867296876189	1
0	2653	881.867296876189	2
0	2655	881.935293492587	1
0	2657	881.935293492587	2
0	2659	882.156981129789	1
0	2661	882.156981129789	2
0	2665	882.676398543191	1
0	2667	882.676398543191	2
0	2673	885.61853700333	1
0	2675	885.61853700333	2
0	2677	885.875820500682	1
0	2679	885.875820500682	2
0	2685	886.728812158761	1
0	2687	886.728812158761	2
0	2691	889.235846278769	1
0	2693	889.235846278769	2
0	2699	891.37595454263	1
0	2701	891.37595454263	2
0	2703	894.36364747828	1
0	2705	894.36364747828	2
0	2707	894.464849610465	1
0	2709	894.464849610465	2
0	2717	902.765656158811	1
0	2719	902.765656158811	2
0	2723	907.83234202607	1
0	2725	907.83234202607	2
0	2727	908.411322014881	1
0	2729	908.411322014881	2
0	2731	908.541302481147	1
0	2733	908.541302481147	2
0	2737	910.321799939161	1
0	2739	910.321799939161	2
0	2741	912.370824207261	1
0	2743	912.370824207261	2
0	2751	914.889621656665	1
0	2753	914.889621656665	2
0	2757	915.072383290491	1
0	2759	915.072383290491	2
0	2763	918.026556154032	1
0	2765	918.026556154032	2
0	2769	921.001502782121	1
0	2771	921.001502782121	2
0	2777	927.604668313556	1
0	2779	927.604668313556	2
0	2781	928.563224595163	1
0	2783	928.563224595163	2
0	2787	929.11726219077	1
0	2789	929.11726219077	2
0	2791	929.243951365678	1
0	2793	929.243951365678	2
0	2795	929.731774018859	1
0	2797	929.731774018859	2
0	2805	932.946518195029	1
0	2807	932.946518195029	2
0	2811	934.81282484161	1
0	2813	934.81282484161	2
0	2819	942.036230649497	1
0	2821	942.036230649497	2
0	2825	943.118696846074	1
0	2827	943.118696846074	2
0	2831	947.935936688321	1
0	2833	947.935936688321	2
0	2835	948.649463273325	1
0	2837	948.649463273325	2
0	2839	949.619715307376	1
0	2841	949.619715307376	2
0	2845	951.563231470073	1
0	2847	951.563231470073	2
0	2849	952.733127693406	1
0	2851	952.733127693406	2
0	2857	955.171275922157	1
0	2859	955.171275922157	2
0	2861	955.31434293124	1
0	2863	955.31434293124	2
0	2873	962.435107423549	1
0	2875	962.435107423549	2
0	2877	962.86479590289	1
0	2879	962.86479590289	2
0	2881	963.367498055815	1
0	2883	963.367498055815	2
0	2887	965.682391934804	1
0	2889	965.682391934804	2
0	2893	967.454584738108	1
0	2895	967.454584738108	2
0	2897	968.134284475449	1
0	2899	968.134284475449	2
0	2901	969.071188087933	1
0	2903	969.071188087933	2
0	2907	970.496939918402	1
0	2909	970.496939918402	2
0	2911	971.492028597481	1
0	2913	971.492028597481	2
0	2917	971.734285392987	1
0	2919	971.734285392987	2
0	2933	977.050500599426	1
0	2935	977.050500599426	2
0	2937	978.303647249928	1
0	2939	978.303647249928	2
0	2943	980.177068435538	1
0	2945	980.177068435538	2
0	2951	986.297307057592	1
0	2953	986.297307057592	2
0	2955	991.662396560233	1
0	2957	991.662396560233	2
0	2963	999.795230429469	1
0	2965	999.795230429469	2
1	357	100.130014087547	4.937980804601
1	363	102.525767632396	6.575094112503
1	367	103.407039737979	3.277025650432
1	377	108.105891991344	5.580124358948
1	381	109.05044672186	5.643406983881
1	387	112.801454293549	4.695562302205
1	393	115.445774723959	6.395328002099
1	397	117.846938683008	5.045484389459
1	407	120.061295676329	4.61552095237
1	411	120.228013764201	2.381075081193
1	415	120.319364245102	0.258068568773
1	419	120.519442703649	0.291428939448
1	423	121.009787249394	0.690423004292
1	435	124.300088901897	3.780646198248
1	439	124.511655505205	3.501868255811
1	443	124.644472313225	0.344383411328
1	455	130.407518590124	5.895863084919
1	459	130.763074511836	6.118602198611
1	465	132.555431433462	2.147912843338
1	473	138.561132930426	7.79805841859
1	477	139.474975032015	6.919543598553
1	481	139.518686638477	0.957553708051
1	489	140.989436970474	1.514461938459
1	493	141.722924100681	2.204237462204
1	503	145.304226881512	4.314789911038
1	509	150.604787836875	8.881863736194
1	513	150.880865959406	5.576639077894
1	519	154.438182483937	3.833394647062
1	525	157.528792174443	6.647926215037
1	533	159.868863387909	5.430680903972
1	537	161.971029850645	4.442237676202
1	543	167.509545765771	7.640682377862
1	551	168.048317816616	6.077287965971
1	555	169.361793815449	1.852248049678
1	561	174.607611746866	6.55929393025
1	565	174.998201599106	5.636407783657
1	569	175.330377479785	0.722765732919
1	581	182.194492633396	7.19629103429
1	585	182.967629141359	7.637251661574
1	593	187.307186193512	5.112693560116
1	597	188.883759365392	5.916130224033
1	605	189.811345063014	2.504158869502
1	609	190.105854330014	1.222094964622
1	613	190.344571136979	0.533226073965
1	617	190.494628787287	0.388774457273
1	621	190.924084606844	0.579513469865
1	625	190.929946379571	0.435317592284
1	637	195.117722876441	4.193638269597
1	645	200.651238561692	9.721292182121
1	649	202.048153362531	6.93043048609
1	657	204.80080034246	4.149561780768
1	663	206.140330091987	4.092176729456
1	667	206.148187300011	1.347386957551
1	675	207.389205507707	1.24887541572
1	679	207.703594887908	1.555407587897
1	685	208.44223128343	1.053025775723
1	691	211.240683170586	3.537088282678
1	701	214.056613284349	5.614382000919
1	705	219.046813547297	7.806130376711
1	713	224.414183109733	10.357569825384
1	717	224.603115970882	5.556302423585
1	721	225.037699161262	0.623516051529
1	727	226.686346265378	2.083230294496
1	731	226.707309086404	1.669609925142
1	735	227.229770840421	0.543424575043
1	739	227.304887070668	0.597577984264
1	745	227.48120004251	0.251429202089
1	753	229.652409167673	2.347522097005
1	759	231.404355848626	3.923155806116
1	769	233.999919579422	4.347510411749
1	779	238.694595473877	7.290239625251
1	783	238.728313431311	4.728393851889
1	791	243.268391548046	4.573796074169
1	795	244.670351030867	5.942037599556
1	803	246.578437212358	3.310045664312
1	807	246.867900741255	2.197549710388
1	811	248.145097761679	1.566660549321
1	817	250.158456067113	3.290555325858
1	825	251.512167832122	3.367070070443
1	833	256.871509326389	6.713053259276
1	839	262.365938782067	10.853770949945
1	843	263.752078965884	6.880569639495
1	849	264.806109201445	2.440170419378
1	855	268.13640282744	4.384323861556
1	861	269.586800315857	4.780691114412
1	865	270.932270725349	2.795867897909
1	873	275.018754444432	5.431954128575
1	881	279.586119748537	8.653849023188
1	885	279.885863640699	4.867109196267
1	891	282.501233655935	2.915113907398
1	895	284.167636046125	4.281772405426
1	903	288.600225887743	6.098992231808
1	909	289.360629270479	5.192993224354
1	913	292.164301897216	3.564076009473
1	917	292.819177669406	3.458548398927
1	921	293.073882570849	0.909580673633
1	929	293.588785923233	0.769608253827
1	933	296.562975405803	3.489092834954
1	945	299.662095720826	6.073309797593
1	953	301.765887608091	5.202912202288
1	957	302.50054087415	2.838445153324
1	965	314.408098524889	12.642210916798
1	969	315.106171361481	12.605630487331
1	975	317.312088310863	2.903989785974
1	979	317.925846662345	2.819675300864
1	985	319.02347613391	1.711387823047
1	991	323.215885111415	5.29003844907
1	995	325.032321356048	6.008845222138
1	999	325.690753609552	2.474868498137
1	1009	328.457287621801	3.424966265753
1	1017	331.059199978304	5.368446368752
1	1021	333.400181220796	4.942893598995
1	1029	334.601757349385	3.542557371081
1	1033	335.926621398642	2.526440177846
1	1037	336.965727137129	2.363969787744
1	1047	343.037603575579	7.110982176937
1	1051	343.070845544852	6.105118407723
1	1059	343.822755128324	0.785151552745
1	1067	353.056617296231	9.985771751379
1	1073	357.365678414103	13.542923285779
1	1077	357.405966199067	4.349348902836
1	1081	357.622908542024	0.257230127921
1	1087	357.820518514731	0.414552315664
1	1093	358.43845884676	0.815550304736
1	1099	358.872154885604	1.051636370873
1	1105	359.874355466405	1.435896619645
1	1113	362.9904435417	4.118288656096
1	1117	363.174916602797	3.300561136392
1	1121	364.124048696765	1.133605155065
1	1125	365.118117874286	1.943201271489
1	1129	365.83824308485	1.714194388085
1	1137	367.098709810129	1.980591935843
1	1151	376.446403262778	10.608160177928
1	1155	379.197099785109	12.09838997498
1	1159	379.372360120113	2.925956857335
1	1167	381.283265490863	2.086165705754
1	1171	381.717665882186	2.345305762073
1	1175	382.676430473447	1.393164982584
1	1185	388.567921198301	6.850255316115
1	1189	389.104668751939	6.428238278492
1	1197	390.145610108039	1.577688909738
1	1205	397.275631784777	8.170963032838
1	1209	397.365464406337	7.219854298298
1	1215	398.03709417395	0.761462389173
1	1219	398.667787503827	1.30232309749
1	1225	399.910742390886	1.873648216936
1	1233	401.016790410649	2.349002906822
1	1241	403.83509190262	3.924349511734
1	1245	404.414455954338	3.397665543689
1	1253	408.395078572311	4.559986669691
1	1257	410.166768491754	5.752312537416
1	1265	412.629763979636	4.234685407325
1	1269	412.681223768375	2.514455276621
1	1273	412.974411154865	0.344647175229
1	1279	414.555515924729	1.874292156354
1	1285	415.162711293886	2.188300139021