version 3
run General-33-20221103-10:28:22-6760
attr configname General
attr datetime 20221103-10:28:22
attr datetimef 20221103-102822
attr experiment General
attr inifile block.ini
attr iterationvars "$0=4, $1=10"
attr iterationvarsd 4/10
attr iterationvarsf 4,10-
attr measurement "$0=4, $1=10"
attr network Block
attr processid 6760
attr repetition 3
attr replication #3
attr resultdir results
attr runnumber 33
attr seedset 33
config network Block
config repeat 5
config sim-time-limit 1000s
config warmup-period 100s
config **.alloca.resourceModuleName "\"risorse\""
config **.dealloca.resourceModuleName "\"risorse\""
config **.is.delay exponential(3s)
config **.servente.serviceTime exponential(4s)
config **.dealloca.resourceAmount 2
config **.alloca.resourceAmount 2
config **.risorse.amount 6
config **.sorgente.numJobs (10)
config **.result-recording-modes all

vector 0 Block.is delayedJobs:vector ETV
attr interpolationmode sample-hold
attr recordingmode vector
attr title "number of delayed jobs"
vector 1 Block.alloca queueLength:vector ETV
attr interpolationmode sample-hold
attr recordingmode vector
attr title "queue length"
vector 2 Block.servente queueLength:vector ETV
attr interpolationmode sample-hold
attr recordingmode vector
attr title "queue length"
vector 3 Block.servente queueingTime:vector ETV
attr interpolationmode none
attr recordingmode vector
attr title "queueing time at dequeue"
attr unit s
vector 4 Block.alloca queueingTime:vector ETV
attr interpolationmode none
attr recordingmode vector
attr title "queueing time at dequeue"
attr unit s
vector 5 Block.risorse amount:vector ETV
attr interpolationmode sample-hold
attr recordingmode vector
attr title "available resource"
0	177	102.213618963802	0
0	182	102.707167548313	1
0	186	104.215953789488	2
0	190	108.246333773336	3
0	191	109.386621370188	2
0	193	110.495810634144	1
0	195	113.255953995582	0
0	200	122.021179930697	1
0	201	123.229232163781	0
0	206	126.525350136837	1
0	207	127.836134795234	0
0	212	129.496562041569	1
0	216	129.679266467006	2
0	217	129.743546461697	1
0	219	132.114480158166	0
0	224	132.27951882556	1
0	228	132.715311073701	2
0	229	132.823345213633	1
0	234	133.245055291154	2
0	235	133.764995705208	1
0	237	138.754230561748	0
0	242	142.534423074762	1
0	246	142.596966524231	2
0	250	143.30686479275	3
0	251	143.847215025201	2
0	253	143.885317920023	1
0	255	147.024646778427	0
0	260	148.599933917558	1
0	261	148.696597907242	0
0	266	148.916020324852	1
0	270	150.765287333245	2
0	271	150.834201910572	1
0	276	151.255029996623	2
0	280	151.877110251455	3
0	281	152.705338457648	2
0	286	154.457836495152	3
0	287	154.710856722084	2
0	289	155.55453833555	1
0	291	155.706298803528	0
0	296	163.548359098022	1
0	297	163.989163162706	0
0	302	169.404903371579	1
0	303	172.121962710834	0
0	308	188.259902408736	1
0	309	188.792151149059	0
0	314	194.505923332692	1
0	315	199.369349988397	0
0	320	203.814584471412	1
0	321	205.894785986142	0
0	326	210.711652039917	1
0	327	210.895664845575	0
0	332	224.548831783885	1
0	336	225.275030032044	2
0	340	225.843332341181	3
0	341	226.040910765052	2
0	343	226.468806014006	1
0	345	228.176010237529	0
0	350	231.376737873786	1
0	351	233.052001854624	0
0	356	235.405677711602	1
0	357	235.685254404209	0
0	362	249.190504286387	1
0	366	250.496464728742	2
0	367	251.995624061947	1
0	372	252.944629617096	2
0	373	253.147874639096	1
0	375	254.210036877856	0
0	380	262.338308038058	1
0	381	263.855248891055	0
0	386	271.961720732949	1
0	387	272.014294787788	0
0	392	274.740109212995	1
0	393	276.635503520118	0
0	398	282.318521603127	1
0	402	287.366318253076	2
0	403	287.894970805521	1
0	405	289.030332989173	0
0	410	299.585819972436	1
0	414	300.969921720583	2
0	415	301.934955217655	1
0	420	303.784171946041	2
0	421	305.168366713287	1
0	423	308.176713037455	0
0	428	311.380479030987	1
0	432	316.556817452044	2
0	436	316.618985654537	3
0	440	316.684634857861	4
0	441	316.767828908691	3
0	443	318.365923087371	2
0	448	322.34319183588	3
0	449	323.503716637247	2
0	454	324.363767419159	3
0	455	325.548578243541	2
0	457	325.819084268847	1
0	459	327.326937450473	0
0	464	330.661029750454	1
0	465	335.451915777114	0
0	470	337.645002582433	1
0	471	339.355288035111	0
0	476	343.857594769852	1
0	477	345.998834825807	0
0	482	360.524352574538	1
0	486	362.529651261981	2
0	487	363.102839144948	1
0	492	364.686916200257	2
0	493	364.847600807429	1
0	495	366.493796241316	0
0	500	368.012698404018	1
0	504	368.824293980733	2
0	508	371.749055754673	3
0	509	372.330913412891	2
0	511	372.759546673814	1
0	516	373.960560454418	2
0	520	374.756204531578	3
0	521	374.866679413431	2
0	523	375.599211639171	1
0	528	376.686020415328	2
0	529	377.273643313559	1
0	534	378.604544732118	2
0	535	381.072334585352	1
0	537	386.977736749843	0
0	542	391.407618197002	1
0	546	392.413416841821	2
0	550	392.813941147177	3
0	551	392.975988628965	2
0	553	393.621132041146	1
0	558	396.6298643016	2
0	562	397.661147298442	3
0	563	399.136029384852	2
0	565	400.839162863611	1
0	570	401.963693070391	2
0	571	402.228323847443	1
0	576	402.71236723338	2
0	580	403.369451393686	3
0	581	404.747121297884	2
0	586	408.426508549286	3
0	587	409.213270573281	2
0	589	409.681379345304	1
0	594	411.448410866024	2
0	595	411.925693200299	1
0	600	413.719945324979	2
0	601	415.196417407798	1
0	603	417.153231597656	0
0	608	421.906703748567	1
0	609	425.200210833486	0
0	614	427.120106245441	1
0	615	428.878696639003	0
0	620	433.7783968147	1
0	621	436.595081082827	0
0	626	440.800029241782	1
0	630	442.342251404436	2
0	631	445.403317244275	1
0	636	450.581719937051	2
0	640	451.269986425445	3
0	641	451.983428878188	2
0	643	452.666060500356	1
0	648	453.60554313517	2
0	649	454.620843400541	1
0	651	458.551327444343	0
0	656	469.891186138493	1
0	660	470.015635239294	2
0	664	470.977466752409	3
0	665	471.909391733204	2
0	667	473.477812975112	1
0	669	474.93733875556	0
0	674	486.417797465331	1
0	678	486.759940618908	2
0	682	487.154343310723	3
0	683	487.28287451781	2
0	685	487.568179913602	1
0	690	490.069645539992	2
0	694	491.060661776877	3
0	698	491.642404170451	4
0	699	492.234017050693	3
0	701	495.864510404595	2
0	703	496.255022138452	1
0	705	496.305441537829	0
0	710	499.740183978078	1
0	711	501.924136705984	0
0	716	504.680265507639	1
0	717	507.093818484831	0
0	722	509.084811731137	1
0	723	511.535053776385	0
0	728	516.155362493072	1
0	732	519.510089894755	2
0	736	520.73630426738	3
0	740	521.95012467517	4
0	744	522.799465265774	5
0	745	522.877464161325	4
0	747	526.177848197315	3
0	752	526.65533677292	4
0	753	530.286920399555	3
0	755	531.074113867341	2
0	757	531.365818712381	1
0	759	532.433352232029	0
0	764	546.803132126842	1
0	768	547.950602515828	2
0	769	548.341085088175	1
0	771	548.501482556458	0
0	776	549.600365851863	1
0	777	552.585448742668	0
0	782	553.778940101971	1
0	786	556.505827992153	2
0	790	556.878616314602	3
0	791	557.273169374409	2
0	793	557.422938432507	1
0	798	557.862281581401	2
0	799	558.153975212481	1
0	804	560.014031207552	2
0	805	560.955682511148	1
0	807	561.710018022046	0
0	812	563.811787512386	1
0	813	564.733500055508	0
0	818	565.395292549351	1
0	819	566.069615272005	0
0	824	574.909389145744	1
0	825	580.764483208912	0
0	830	584.879440764928	1
0	831	587.361515752071	0
0	836	589.400439919662	1
0	837	590.339777224237	0
0	842	592.801172477822	1
0	846	593.076207420618	2
0	850	594.686711290356	3
0	851	594.721492450298	2
0	853	594.749646285556	1
0	858	597.286602388751	2
0	859	597.496261415228	1
0	861	601.092557315224	0
0	866	602.449765721662	1
0	870	602.735992369456	2
0	871	604.202966989985	1
0	873	604.30968099604	0
0	878	608.622545325727	1
0	879	608.78855908676	0
0	884	610.813844412778	1
0	885	610.931065217318	0
0	890	614.074552861487	1
0	891	614.690670699729	0
0	896	621.690624888068	1
0	897	621.780239798024	0
0	902	625.502650599292	1
0	906	626.129581192369	2
0	907	627.069173965401	1
0	909	629.359004777378	0
0	914	634.18073934303	1
0	918	638.612294328648	2
0	919	639.040162182864	1
0	921	640.401125637657	0
0	926	643.287458485358	1
0	927	648.159499235982	0
0	932	648.953425453872	1
0	933	651.493649099289	0
0	938	663.05198945874	1
0	942	664.861796986388	2
0	943	667.443477805749	1
0	948	669.341790005328	2
0	949	669.796337338576	1
0	951	670.638970351321	0
0	956	673.913846244451	1
0	957	674.565091393302	0
0	962	674.791992395316	1
0	963	675.636668101741	0
0	968	682.141655899508	1
0	969	683.704735420113	0
0	974	685.247447810848	1
0	978	689.648492180202	2
0	979	690.564534942571	1
0	984	694.426422208815	2
0	988	695.954025396508	3
0	989	697.020800750316	2
0	991	697.933303435744	1
0	996	698.686436496898	2
0	997	700.829144686007	1
0	999	701.202961053034	0
0	1004	714.077718470188	1
0	1005	715.39428585672	0
0	1010	718.288914511991	1
0	1014	718.531404612939	2
0	1018	718.5725379802	3
0	1019	719.26654670034	2
0	1021	719.33633767257	1
0	1023	722.027698509759	0
0	1028	722.425328440067	1
0	1032	723.405255865547	2
0	1033	723.682154443586	1
0	1035	724.773829474752	0
0	1040	733.41610188425	1
0	1041	734.961144673399	0
0	1046	737.384449807413	1
0	1047	738.611471054196	0
0	1052	740.241504329306	1
0	1053	741.913785983763	0
0	1058	745.989743962165	1
0	1062	746.54019402091	2
0	1063	746.689645959916	1
0	1068	747.069165304598	2
0	1069	747.541495058687	1
0	1071	751.807661392321	0
0	1076	754.432577061616	1
0	1080	754.908824652681	2
0	1084	756.41252792977	3
0	1085	756.812256101059	2
0	1087	757.571045852519	1
0	1089	759.623909042563	0
0	1094	764.18378947098	1
0	1095	765.662321655632	0
0	1100	767.443640813992	1
0	1101	769.043980867159	0
0	1106	772.838679554246	1
0	1110	773.212604261858	2
0	1111	774.510072667881	1
0	1113	775.698962644531	0
0	1118	776.601241506459	1
0	1122	779.468922371904	2
0	1123	779.659282817941	1
0	1125	779.94734514489	0
0	1130	781.612904436276	1
0	1131	782.298786772535	0
0	1136	787.39990492119	1
0	1137	787.552336935331	0
0	1142	789.223581090167	1
0	1146	789.540364775193	2
0	1147	789.656892607994	1
0	1152	792.77622666607	2
0	1153	794.102775437477	1
0	1155	795.892995963269	0
0	1160	796.211860916824	1
0	1164	796.842346472744	2
0	1165	797.430149088083	1
0	1170	797.967109587647	2
0	1171	798.471517214728	1
0	1176	798.95100565172	2
0	1180	801.923885505129	3
0	1181	803.599422535963	2
0	1186	804.604219010784	3
0	1190	805.855964213707	4
0	1191	805.86670120296	3
0	1193	806.852990538902	2
0	1195	807.042583463207	1
0	1200	810.199433989441	2
0	1201	811.12914310357	1
0	1206	811.617240907513	2
0	1210	813.667138918572	3
0	1211	813.905141444641	2
0	1216	814.01795729464	3
0	1217	815.844073402221	2
0	1219	815.933948710854	1
0	1221	818.592341457553	0
0	1226	829.768045100341	1
0	1227	831.554282897501	0
0	1232	832.617220877319	1
0	1236	832.948052861215	2
0	1237	833.168905982171	1
0	1239	834.370089553215	0
0	1244	834.447809108871	1
0	1248	841.902168231772	2
0	1249	842.778683810418	1
0	1251	844.627212337326	0
0	1256	846.743980461905	1
0	1257	849.202462035578	0
0	1262	851.619703052325	1
0	1266	853.279000541993	2
0	1267	855.549114836039	1
0	1269	859.798047449805	0
0	1274	863.88426860745	1
0	1278	865.696492066719	2
0	1282	868.243124323399	3
0	1283	868.251148990291	2
0	1285	868.448469372724	1
0	1287	868.762444771659	0
0	1292	882.213299355938	1
0	1293	884.310249796715	0
0	1298	888.342563986744	1
0	1299	891.837039633596	0
0	1304	898.046634603466	1
0	1305	898.192522374245	0
0	1310	921.196617697615	1
0	1311	922.233264733942	0
0	1316	924.256641897208	1
0	1320	924.447429564812	2
0	1321	927.720585077548	1
0	1326	927.745551242594	2
0	1327	927.990806441077	1
0	1332	928.098819483093	2
0	1333	929.669001934374	1
0	1335	930.285604879547	0
0	1340	934.953265644243	1
0	1344	941.171539321927	2
0	1345	942.25205720095	1
0	1350	942.286137503622	2
0	1351	942.374532013423	1
0	1353	944.157578025745	0
0	1358	945.919966148978	1
0	1362	946.955861749844	2
0	1363	947.98434293414	1
0	1365	949.692630903059	0
0	1370	961.875565754659	1
0	1374	964.799955121888	2
0	1378	965.365945378246	3
0	1379	965.868279679255	2
0	1381	966.333627730194	1
0	1383	966.491786892153	0
0	1388	975.937032542704	1
0	1389	977.315131847728	0
0	1394	985.986972475578	1
0	1395	986.463150739982	0
0	1400	990.180698271351	1
0	1404	990.446241670164	2
0	1408	992.662230396984	3
0	1409	992.695921576831	2
0	1411	992.810582950861	1
0	1416	994.884322581115	2
0	1417	995.943566604246	1
0	1422	996.889871461191	2
0	1426	998.633403644877	3
1	178	102.213618963802	7
1	180	102.707167548313	6
1	184	104.215953789488	5
1	188	108.246333773336	4
1	192	109.386621370188	5
1	194	110.495810634144	6
1	196	113.255953995582	7
1	198	122.021179930697	6
1	202	123.229232163781	7
1	204	126.525350136837	6
1	208	127.836134795234	7
1	210	129.496562041569	6
1	214	129.679266467006	5
1	218	129.743546461697	6
1	220	132.114480158166	7
1	222	132.27951882556	6
1	226	132.715311073701	5
1	230	132.823345213633	6
1	232	133.245055291154	5
1	236	133.764995705208	6
1	238	138.754230561748	7
1	240	142.534423074762	6
1	244	142.596966524231	5
1	248	143.30686479275	4
1	252	143.847215025201	5
1	254	143.885317920023	6
1	256	147.024646778427	7
1	258	148.599933917558	6
1	262	148.696597907242	7
1	264	148.916020324852	6
1	268	150.765287333245	5
1	272	150.834201910572	6
1	274	151.255029996623	5
1	278	151.877110251455	4
1	282	152.705338457648	5
1	284	154.457836495152	4
1	288	154.710856722084	5
1	290	155.55453833555	6
1	292	155.706298803528	7
1	294	163.548359098022	6
1	298	163.989163162706	7
1	300	169.404903371579	6
1	304	172.121962710834	7
1	306	188.259902408736	6
1	310	188.792151149059	7
1	312	194.505923332692	6
1	316	199.369349988397	7
1	318	203.814584471412	6
1	322	205.894785986142	7
1	324	210.711652039917	6
1	328	210.895664845575	7
1	330	224.548831783885	6
1	334	225.275030032044	5
1	338	225.843332341181	4
1	342	226.040910765052	5
1	344	226.468806014006	6
1	346	228.176010237529	7
1	348	231.376737873786	6
1	352	233.052001854624	7
1	354	235.405677711602	6
1	358	235.685254404209	7
1	360	249.190504286387	6
1	364	250.496464728742	5
1	368	251.995624061947	6
1	370	252.944629617096	5
1	374	253.147874639096	6
1	376	254.210036877856	7
1	378	262.338308038058	6
1	382	263.855248891055	7
1	384	271.961720732949	6
1	388	272.014294787788	7
1	390	274.740109212995	6
1	394	276.635503520118	7
1	396	282.318521603127	6
1	400	287.366318253076	5
1	404	287.894970805521	6
1	406	289.030332989173	7
1	408	299.585819972436	6
1	412	300.969921720583	5
1	416	301.934955217655	6
1	418	303.784171946041	5
1	422	305.168366713287	6
1	424	308.176713037455	7
1	426	311.380479030987	6
1	430	316.556817452044	5
1	434	316.618985654537	4
1	438	316.684634857861	3
1	442	316.767828908691	4
1	444	318.365923087371	5
1	446	322.34319183588	4
1	450	323.503716637247	5
1	452	324.363767419159	4
1	456	325.548578243541	5
1	458	325.819084268847	6
1	460	327.326937450473	7
1	462	330.661029750454	6
1	466	335.451915777114	7
1	468	337.645002582433	6
1	472	339.355288035111	7
1	474	343.857594769852	6
1	478	345.998834825807	7
1	480	360.524352574538	6
1	484	362.529651261981	5
1	488	363.102839144948	6
1	490	364.686916200257	5
1	494	364.847600807429	6
1	496	366.493796241316	7
1	498	368.012698404018	6
1	502	368.824293980733	5
1	506	371.749055754673	4
1	510	372.330913412891	5
1	512	372.759546673814	6
1	514	373.960560454418	5
1	518	374.756204531578	4
1	522	374.866679413431	5
1	524	375.599211639171	6
1	526	376.686020415328	5
1	530	377.273643313559	6
1	532	378.604544732118	5
1	536	381.072334585352	6
1	538	386.977736749843	7
1	540	391.407618197002	6
1	544	392.413416841821	5
1	548	392.813941147177	4
1	552	392.975988628965	5
1	554	393.621132041146	6
1	556	396.6298643016	5
1	560	397.661147298442	4
1	564	399.136029384852	5
1	566	400.839162863611	6
1	568	401.963693070391	5
1	572	402.228323847443	6
1	574	402.71236723338	5
1	578	403.369451393686	4
1	582	404.747121297884	5
1	584	408.426508549286	4
1	588	409.213270573281	5
1	590	409.681379345304	6
1	592	411.448410866024	5
1	596	411.925693200299	6
1	598	413.719945324979	5
1	602	415.196417407798	6
1	604	417.153231597656	7
1	606	421.906703748567	6
1	610	425.200210833486	7
1	612	427.120106245441	6
1	616	428.878696639003	7
1	618	433.7783968147	6
1	622	436.595081082827	7
1	624	440.800029241782	6
1	628	442.342251404436	5
1	632	445.403317244275	6
1	634	450.581719937051	5
1	638	451.269986425445	4
1	642	451.983428878188	5
1	644	452.666060500356	6
1	646	453.60554313517	5
1	650	454.620843400541	6
1	652	458.551327444343	7
1	654	469.891186138493	6
1	658	470.015635239294	5
1	662	470.977466752409	4
1	666	471.909391733204	5
1	668	473.477812975112	6
1	670	474.93733875556	7
1	672	486.417797465331	6
1	676	486.759940618908	5
1	680	487.154343310723	4
1	684	487.28287451781	5
1	686	487.568179913602	6
1	688	490.069645539992	5
1	692	491.060661776877	4
1	696	491.642404170451	3
1	700	492.234017050693	4
1	702	495.864510404595	5
1	704	496.255022138452	6
1	706	496.305441537829	7
1	708	499.740183978078	6
1	712	501.924136705984	7
1	714	504.680265507639	6
1	718	507.093818484831	7
1	720	509.084811731137	6
1	724	511.535053776385	7
1	726	516.155362493072	6
1	730	519.510089894755	5
1	734	520.73630426738	4
1	738	521.95012467517	3
1	742	522.799465265774	2
1	746	522.877464161325	3
1	748	526.177848197315	4
1	750	526.65533677292	3
1	754	530.286920399555	4
1	756	531.074113867341	5
1	758	531.365818712381	6
1	760	532.433352232029	7
1	762	546.803132126842	6
1	766	547.950602515828	5
1	770	548.341085088175	6
1	772	548.501482556458	7
1	774	549.600365851863	6
1	778	552.585448742668	7
1	780	553.778940101971	6
1	784	556.505827992153	5
1	788	556.878616314602	4
1	792	557.273169374409	5
1	794	557.422938432507	6
1	796	557.862281581401	5
1	800	558.153975212481	6
1	802	560.014031207552	5
1	806	560.955682511148	6
1	808	561.710018022046	7
1	810	563.811787512386	6
1	814	564.733500055508	7
1	816	565.395292549351	6
1	820	566.069615272005	7
1	822	574.909389145744	6
1	826	580.764483208912	7
1	828	584.879440764928	6
1	832	587.361515752071	7
1	834	589.400439919662	6
1	838	590.339777224237	7
1	840	592.801172477822	6
1	844	593.076207420618	5
1	848	594.686711290356	4
1	852	594.721492450298	5
1	854	594.749646285556	6
1	856	597.286602388751	5
1	860	597.496261415228	6
1	862	601.092557315224	7
1	864	602.449765721662	6
1	868	602.735992369456	5
1	872	604.202966989985	6
1	874	604.30968099604	7
1	876	608.622545325727	6
1	880	608.78855908676	7
1	882	610.813844412778	6
1	886	610.931065217318	7
1	888	614.074552861487	6
1	892	614.690670699729	7
1	894	621.690624888068	6
1	898	621.780239798024	7
1	900	625.502650599292	6
1	904	626.129581192369	5
1	908	627.069173965401	6
1	910	629.359004777378	7
1	912	634.18073934303	6
1	916	638.612294328648	5
1	920	639.040162182864	6
1	922	640.401125637657	7
1	924	643.287458485358	6
1	928	648.159499235982	7
1	930	648.953425453872	6
1	934	651.493649099289	7
1	936	663.05198945874	6
1	940	664.861796986388	5
1	944	667.443477805749	6
1	946	669.341790005328	5
1	950	669.796337338576	6
1	952	670.638970351321	7
1	954	673.913846244451	6
1	958	674.565091393302	7
1	960	674.791992395316	6
1	964	675.636668101741	7
1	966	682.141655899508	6
1	970	683.704735420113	7
1	972	685.247447810848	6
1	976	689.648492180202	5
1	980	690.564534942571	6
1	982	694.426422208815	5
1	986	695.954025396508	4
1	990	697.020800750316	5
1	992	697.933303435744	6
1	994	698.686436496898	5
1	998	700.829144686007	6
1	1000	701.202961053034	7
1	1002	714.077718470188	6
1	1006	715.39428585672	7
1	1008	718.288914511991	6
1	1012	718.531404612939	5
1	1016	718.5725379802	4
1	1020	719.26654670034	5
1	1022	719.33633767257	6
1	1024	722.027698509759	7
1	1026	722.425328440067	6
1	1030	723.405255865547	5
1	1034	723.682154443586	6
1	1036	724.773829474752	7
1	1038	733.41610188425	6
1	1042	734.961144673399	7
1	1044	737.384449807413	6
1	1048	738.611471054196	7
1	1050	740.241504329306	6
1	1054	741.913785983763	7
1	1056	745.989743962165	6
1	1060	746.54019402091	5
1	1064	746.689645959916	6
1	1066	747.069165304598	5
1	1070	747.541495058687	6
1	1072	751.807661392321	7
1	1074	754.432577061616	6
1	1078	754.908824652681	5
1	1082	756.41252792977	4
1	1086	756.812256101059	5
1	1088	757.571045852519	6
1	1090	759.623909042563	7
1	1092	764.18378947098	6
1	1096	765.662321655632	7
1	1098	767.443640813992	6
1	1102	769.043980867159	7
1	1104	772.838679554246	6
1	1108	773.212604261858	5
1	1112	774.510072667881	6
1	1114	775.698962644531	7
1	1116	776.601241506459	6
1	1120	779.468922371904	5
1	1124	779.659282817941	6
1	1126	779.94734514489	7
1	1128	781.612904436276	6
1	1132	782.298786772535	7
1	1134	787.39990492119	6
1	1138	787.552336935331	7
1	1140	789.223581090167	6
1	1144	789.540364775193	5
1	1148	789.656892607994	6
1	1150	792.77622666607	5
1	1154	794.102775437477	6
1	1156	795.892995963269	7
1	1158	796.211860916824	6
1	1162	796.842346472744	5
1	1166	797.430149088083	6
1	1168	797.967109587647	5
1	1172	798.471517214728	6
1	1174	798.95100565172	5
1	1178	801.923885505129	4
1	1182	803.599422535963	5
1	1184	804.604219010784	4
1	1188	805.855964213707	3
1	1192	805.86670120296	4
1	1194	806.852990538902	5
1	1196	807.042583463207	6
1	1198	810.199433989441	5
1	1202	811.12914310357	6
1	1204	811.617240907513	5
1	1208	813.667138918572	4
1	1212	813.905141444641	5
1	1214	814.01795729464	4
1	1218	815.844073402221	5
1	1220	815.933948710854	6
1	1222	818.592341457553	7
1	1224	829.768045100341	6
1	1228	831.554282897501	7
1	1230	832.617220877319	6
1	1234	832.948052861215	5
1	1238	833.168905982171	6
1	1240	834.370089553215	7
1	1242	834.447809108871	6
1	1246	841.902168231772	5
1	1250	842.778683810418	6
1	1252	844.627212337326	7
1	1254	846.743980461905	6
1	1258	849.202462035578	7
1	1260	851.619703052325	6
1	1264	853.279000541993	5
1	1268	855.549114836039	6
1	1270	859.798047449805	7
1	1272	863.88426860745	6
1	1276	865.696492066719	5
1	1280	868.243124323399	4
1	1284	868.251148990291	5
1	1286	868.448469372724	6
1	1288	868.762444771659	7
1	1290	882.213299355938	6
1	1294	884.310249796715	7
1	1296	888.342563986744	6
1	1300	891.837039633596	7
1	1302	898.046634603466	6
1	1306	898.192522374245	7
1	1308	921.196617697615	6
1	1312	922.233264733942	7
1	1314	924.256641897208	6
1	1318	924.447429564812	5
1	1322	927.720585077548	6
1	1324	927.745551242594	5
1	1328	927.990806441077	6
1	1330	928.098819483093	5
1	1334	929.669001934374	6
1	1336	930.285604879547	7
1	1338	934.953265644243	6
1	1342	941.171539321927	5
1	1346	942.25205720095	6
1	1348	942.286137503622	5
1	1352	942.374532013423	6
1	1354	944.157578025745	7
1	1356	945.919966148978	6
1	1360	946.955861749844	5
1	1364	947.98434293414	6
1	1366	949.692630903059	7
1	1368	961.875565754659	6
1	1372	964.799955121888	5
1	1376	965.365945378246	4
1	1380	965.868279679255	5
1	1382	966.333627730194	6
1	1384	966.491786892153	7
1	1386	975.937032542704	6
1	1390	977.315131847728	7
1	1392	985.986972475578	6
1	1396	986.463150739982	7
1	1398	990.180698271351	6
1	1402	990.446241670164	5
1	1406	992.662230396984	4
1	1410	992.695921576831	5
1	1412	992.810582950861	6
1	1414	994.884322581115	5
1	1418	995.943566604246	6
1	1420	996.889871461191	5
1	1424	998.633403644877	4
2	179	102.707167548313	1
2	181	102.707167548313	2
2	183	104.215953789488	1
2	185	104.215953789488	2
2	187	108.246333773336	1
2	189	108.246333773336	2
2	197	122.021179930697	1
2	199	122.021179930697	2
2	203	126.525350136837	1
2	205	126.525350136837	2
2	209	129.496562041569	1
2	211	129.496562041569	2
2	213	129.679266467006	1
2	215	129.679266467006	2
2	221	132.27951882556	1
2	223	132.27951882556	2
2	225	132.715311073701	1
2	227	132.715311073701	2
2	231	133.245055291154	1
2	233	133.245055291154	2
2	239	142.534423074762	1
2	241	142.534423074762	2
2	243	142.596966524231	1
2	245	142.596966524231	2
2	247	143.30686479275	1
2	249	143.30686479275	2
2	257	148.599933917558	1
2	259	148.599933917558	2
2	263	148.916020324852	1
2	265	148.916020324852	2
2	267	150.765287333245	1
2	269	150.765287333245	2
2	273	151.255029996623	1
2	275	151.255029996623	2
2	277	151.877110251455	1
2	279	151.877110251455	2
2	283	154.457836495152	1
2	285	154.457836495152	2
2	293	163.548359098022	1
2	295	163.548359098022	2
2	299	169.404903371579	1
2	301	169.404903371579	2
2	305	188.259902408736	1
2	307	188.259902408736	2
2	311	194.505923332692	1
2	313	194.505923332692	2
2	317	203.814584471412	1
2	319	203.814584471412	2
2	323	210.711652039917	1
2	325	210.711652039917	2
2	329	224.548831783885	1
2	331	224.548831783885	2
2	333	225.275030032044	1
2	335	225.275030032044	2
2	337	225.843332341181	1
2	339	225.843332341181	2
2	347	231.376737873786	1
2	349	231.376737873786	2
2	353	235.405677711602	1
2	355	235.405677711602	2
2	359	249.190504286387	1
2	361	249.190504286387	2
2	363	250.496464728742	1
2	365	250.496464728742	2
2	369	252.944629617096	1
2	371	252.944629617096	2
2	377	262.338308038058	1
2	379	262.338308038058	2
2	383	271.961720732949	1
2	385	271.961720732949	2
2	389	274.740109212995	1
2	391	274.740109212995	2
2	395	282.318521603127	1
2	397	282.318521603127	2
2	399	287.366318253076	1
2	401	287.366318253076	2
2	407	299.585819972436	1
2	409	299.585819972436	2
2	411	300.969921720583	1
2	413	300.969921720583	2
2	417	303.784171946041	1
2	419	303.784171946041	2
2	425	311.380479030987	1
2	427	311.380479030987	2
2	429	316.556817452044	1
2	431	316.556817452044	2
2	433	316.618985654537	1
2	435	316.618985654537	2
2	437	316.684634857861	1
2	439	316.684634857861	2
2	445	322.34319183588	1
2	447	322.34319183588	2
2	451	324.363767419159	1
2	453	324.363767419159	2
2	461	330.661029750454	1
2	463	330.661029750454	2
2	467	337.645002582433	1
2	469	337.645002582433	2
2	473	343.857594769852	1
2	475	343.857594769852	2
2	479	360.524352574538	1
2	481	360.524352574538	2
2	483	362.529651261981	1
2	485	362.529651261981	2
2	489	364.686916200257	1
2	491	364.686916200257	2
2	497	368.012698404018	1
2	499	368.012698404018	2
2	501	368.824293980733	1
2	503	368.824293980733	2
2	505	371.749055754673	1
2	507	371.749055754673	2
2	513	373.960560454418	1
2	515	373.960560454418	2
2	517	374.756204531578	1
2	519	374.756204531578	2
2	525	376.686020415328	1
2	527	376.686020415328	2
2	531	378.604544732118	1
2	533	378.604544732118	2
2	539	391.407618197002	1
2	541	391.407618197002	2
2	543	392.413416841821	1
2	545	392.413416841821	2
2	547	392.813941147177	1
2	549	392.813941147177	2
2	555	396.6298643016	1
2	557	396.6298643016	2
2	559	397.661147298442	1
2	561	397.661147298442	2
2	567	401.963693070391	1
2	569	401.963693070391	2
2	573	402.71236723338	1
2	575	402.71236723338	2
2	577	403.369451393686	1
2	579	403.369451393686	2
2	583	408.426508549286	1
2	585	408.426508549286	2
2	591	411.448410866024	1
2	593	411.448410866024	2
2	597	413.719945324979	1
2	599	413.719945324979	2
2	605	421.906703748567	1
2	607	421.906703748567	2
2	611	427.120106245441	1
2	613	427.120106245441	2
2	617	433.7783968147	1
2	619	433.7783968147	2
2	623	440.800029241782	1
2	625	440.800029241782	2
2	627	442.342251404436	1
2	629	442.342251404436	2
2	633	450.581719937051	1
2	635	450.581719937051	2
2	637	451.269986425445	1
2	639	451.269986425445	2
2	645	453.60554313517	1
2	647	453.60554313517	2
2	653	469.891186138493	1
2	655	469.891186138493	2
2	657	470.015635239294	1
2	659	470.015635239294	2
2	661	470.977466752409	1
2	663	470.977466752409	2
2	671	486.417797465331	1
2	673	486.417797465331	2
2	675	486.759940618908	1
2	677	486.759940618908	2
2	679	487.154343310723	1
2	681	487.154343310723	2
2	687	490.069645539992	1
2	689	490.069645539992	2
2	691	491.060661776877	1
2	693	491.060661776877	2
2	695	491.642404170451	1
2	697	491.642404170451	2
2	707	499.740183978078	1
2	709	499.740183978078	2
2	713	504.680265507639	1
2	715	504.680265507639	2
2	719	509.084811731137	1
2	721	509.084811731137	2
2	725	516.155362493072	1
2	727	516.155362493072	2
2	729	519.510089894755	1
2	731	519.510089894755	2
2	733	520.73630426738	1
2	735	520.73630426738	2
2	737	521.95012467517	1
2	739	521.95012467517	2
2	741	522.799465265774	1
2	743	522.799465265774	2
2	749	526.65533677292	1
2	751	526.65533677292	2
2	761	546.803132126842	1
2	763	546.803132126842	2
2	765	547.950602515828	1
2	767	547.950602515828	2
2	773	549.600365851863	1
2	775	549.600365851863	2
2	779	553.778940101971	1
2	781	553.778940101971	2
2	783	556.505827992153	1
2	785	556.505827992153	2
2	787	556.878616314602	1
2	789	556.878616314602	2
2	795	557.862281581401	1
2	797	557.862281581401	2
2	801	560.014031207552	1
2	803	560.014031207552	2
2	809	563.811787512386	1
2	811	563.811787512386	2
2	815	565.395292549351	1
2	817	565.395292549351	2
2	821	574.909389145744	1
2	823	574.909389145744	2
2	827	584.879440764928	1
2	829	584.879440764928	2
2	833	589.400439919662	1
2	835	589.400439919662	2
2	839	592.801172477822	1
2	841	592.801172477822	2
2	843	593.076207420618	1
2	845	593.076207420618	2
2	847	594.686711290356	1
2	849	594.686711290356	2
2	855	597.286602388751	1
2	857	597.286602388751	2
2	863	602.449765721662	1
2	865	602.449765721662	2
2	867	602.735992369456	1
2	869	602.735992369456	2
2	875	608.622545325727	1
2	877	608.622545325727	2
2	881	610.813844412778	1
2	883	610.813844412778	2
2	887	614.074552861487	1
2	889	614.074552861487	2
2	893	621.690624888068	1
2	895	621.690624888068	2
2	899	625.502650599292	1
2	901	625.502650599292	2
2	903	626.129581192369	1
2	905	626.129581192369	2
2	911	634.18073934303	1
2	913	634.18073934303	2
2	915	638.612294328648	1
2	917	638.612294328648	2
2	923	643.287458485358	1
2	925	643.287458485358	2
2	929	648.953425453872	1
2	931	648.953425453872	2
2	935	663.05198945874	1
2	937	663.05198945874	2
2	939	664.861796986388	1
2	941	664.861796986388	2
2	945	669.341790005328	1
2	947	669.341790005328	2
2	953	673.913846244451	1
2	955	673.913846244451	2
2	959	674.791992395316	1
2	961	674.791992395316	2
2	965	682.141655899508	1
2	967	682.141655899508	2
2	971	685.247447810848	1
2	973	685.247447810848	2
2	975	689.648492180202	1
2	977	689.648492180202	2
2	981	694.426422208815	1
2	983	694.426422208815	2
2	985	695.954025396508	1
2	987	695.954025396508	2
2	993	698.686436496898	1
2	995	698.686436496898	2
2	1001	714.077718470188	1
2	1003	714.077718470188	2
2	1007	718.288914511991	1
2	1009	718.288914511991	2
2	1011	718.531404612939	1
2	1013	718.531404612939	2
2	1015	718.5725379802	1
2	1017	718.5725379802	2
2	1025	722.425328440067	1
2	1027	722.425328440067	2
2	1029	723.405255865547	1
2	1031	723.405255865547	2
2	1037	733.41610188425	1
2	1039	733.41610188425	2
2	1043	737.384449807413	1
2	1045	737.384449807413	2
2	1049	740.241504329306	1