version 3
run General-2-20221103-10:28:21-6760
attr configname General
attr datetime 20221103-10:28:21
attr datetimef 20221103-102821
attr experiment General
attr inifile block.ini
attr iterationvars "$0=2, $1=10"
attr iterationvarsd 2/10
attr iterationvarsf 2,10-
attr measurement "$0=2, $1=10"
attr network Block
attr processid 6760
attr repetition 2
attr replication #2
attr resultdir results
attr runnumber 2
attr seedset 2
config network Block
config repeat 5
config sim-time-limit 1000s
config warmup-period 100s
config **.alloca.resourceModuleName "\"risorse\""
config **.dealloca.resourceModuleName "\"risorse\""
config **.is.delay exponential(3s)
config **.servente.serviceTime exponential(2s)
config **.dealloca.resourceAmount 2
config **.alloca.resourceAmount 2
config **.risorse.amount 6
config **.sorgente.numJobs (10)
config **.result-recording-modes all

vector 0 Block.servente queueLength:vector ETV
attr interpolationmode sample-hold
attr recordingmode vector
attr title "queue length"
vector 1 Block.servente queueingTime:vector ETV
attr interpolationmode none
attr recordingmode vector
attr title "queueing time at dequeue"
attr unit s
vector 2 Block.alloca queueLength:vector ETV
attr interpolationmode sample-hold
attr recordingmode vector
attr title "queue length"
vector 3 Block.alloca queueingTime:vector ETV
attr interpolationmode none
attr recordingmode vector
attr title "queueing time at dequeue"
attr unit s
vector 4 Block.risorse amount:vector ETV
attr interpolationmode sample-hold
attr recordingmode vector
attr title "available resource"
vector 5 Block.is delayedJobs:vector ETV
attr interpolationmode sample-hold
attr recordingmode vector
attr title "number of delayed jobs"
0	321	100.404651402735	1
0	323	100.404651402735	2
0	325	101.852437959246	1
0	327	101.852437959246	2
0	333	102.351921687316	1
0	335	102.351921687316	2
0	341	105.097741656996	1
0	343	105.097741656996	2
0	347	106.227382468869	1
0	349	106.227382468869	2
0	351	110.611326696727	1
0	353	110.611326696727	2
0	355	116.278325763993	1
0	357	116.278325763993	2
0	359	117.676705565924	1
0	361	117.676705565924	2
0	363	120.098311297776	1
0	365	120.098311297776	2
0	375	122.55035281259	1
0	377	122.55035281259	2
0	381	123.862139440824	1
0	383	123.862139440824	2
0	389	130.315639427764	1
0	391	130.315639427764	2
0	393	131.425969686061	1
0	395	131.425969686061	2
0	397	132.205766143532	1
0	399	132.205766143532	2
0	407	135.076147195878	1
0	409	135.076147195878	2
0	411	140.47121539944	1
0	413	140.47121539944	2
0	417	142.955376543718	1
0	419	142.955376543718	2
0	421	144.412638280219	1
0	423	144.412638280219	2
0	431	148.729116050756	1
0	433	148.729116050756	2
0	437	150.342347431568	1
0	439	150.342347431568	2
0	443	152.047301589354	1
0	445	152.047301589354	2
0	447	153.048832026617	1
0	449	153.048832026617	2
0	455	158.271044244738	1
0	457	158.271044244738	2
0	459	158.282163941503	1
0	461	158.282163941503	2
0	467	160.889739188718	1
0	469	160.889739188718	2
0	471	161.769087297569	1
0	473	161.769087297569	2
0	475	162.247971714275	1
0	477	162.247971714275	2
0	481	163.146891621792	1
0	483	163.146891621792	2
0	491	167.359288924099	1
0	493	167.359288924099	2
0	495	168.262283639396	1
0	497	168.262283639396	2
0	499	169.661446982873	1
0	501	169.661446982873	2
0	509	172.579076092541	1
0	511	172.579076092541	2
0	515	177.496982561049	1
0	517	177.496982561049	2
0	521	180.998616950751	1
0	523	180.998616950751	2
0	525	182.059811352179	1
0	527	182.059811352179	2
0	531	184.052875991529	1
0	533	184.052875991529	2
0	537	184.889708028069	1
0	539	184.889708028069	2
0	541	185.851248191393	1
0	543	185.851248191393	2
0	549	192.415922077562	1
0	551	192.415922077562	2
0	555	194.498577122905	1
0	557	194.498577122905	2
0	563	200.831412951267	1
0	565	200.831412951267	2
0	569	204.085111471784	1
0	571	204.085111471784	2
0	573	204.606246737216	1
0	575	204.606246737216	2
0	581	208.833518339797	1
0	583	208.833518339797	2
0	585	210.628929183219	1
0	587	210.628929183219	2
0	593	213.714098133742	1
0	595	213.714098133742	2
0	597	215.233289463537	1
0	599	215.233289463537	2
0	605	222.135571939808	1
0	607	222.135571939808	2
0	611	223.846685525602	1
0	613	223.846685525602	2
0	615	225.142434416056	1
0	617	225.142434416056	2
0	619	226.235818029761	1
0	621	226.235818029761	2
0	623	228.063305848004	1
0	625	228.063305848004	2
0	627	228.288686102005	1
0	629	228.288686102005	2
0	633	229.208341396196	1
0	635	229.208341396196	2
0	639	229.694540090186	1
0	641	229.694540090186	2
0	651	232.986859456319	1
0	653	232.986859456319	2
0	657	236.188019858337	1
0	659	236.188019858337	2
0	665	237.805313140183	1
0	667	237.805313140183	2
0	669	242.315680901941	1
0	671	242.315680901941	2
0	677	247.60977645888	1
0	679	247.60977645888	2
0	683	255.210148645589	1
0	685	255.210148645589	2
0	689	260.205372004379	1
0	691	260.205372004379	2
0	693	260.287039399905	1
0	695	260.287039399905	2
0	697	262.92672340196	1
0	699	262.92672340196	2
0	707	267.460655046675	1
0	709	267.460655046675	2
0	713	271.098882026811	1
0	715	271.098882026811	2
0	717	272.636580032135	1
0	719	272.636580032135	2
0	723	273.41178694566	1
0	725	273.41178694566	2
0	727	274.424305716394	1
0	729	274.424305716394	2
0	733	275.074213179097	1
0	735	275.074213179097	2
0	743	280.579723983862	1
0	745	280.579723983862	2
0	749	281.826006032195	1
0	751	281.826006032195	2
0	755	285.651000727793	1
0	757	285.651000727793	2
0	761	286.129463697057	1
0	763	286.129463697057	2
0	765	286.129710880686	1
0	767	286.129710880686	2
0	769	286.324707810395	1
0	771	286.324707810395	2
0	773	286.709733770888	1
0	775	286.709733770888	2
0	783	288.156365877302	1
0	785	288.156365877302	2
0	791	292.396732142059	1
0	793	292.396732142059	2
0	797	295.469031978827	1
0	799	295.469031978827	2
0	803	296.978316338275	1
0	805	296.978316338275	2
0	807	297.618280276017	1
0	809	297.618280276017	2
0	811	297.671757183491	1
0	813	297.671757183491	2
0	819	301.747721105675	1
0	821	301.747721105675	2
0	823	302.392096620834	1
0	825	302.392096620834	2
0	829	302.70589636443	1
0	831	302.70589636443	2
0	837	304.113955261511	1
0	839	304.113955261511	2
0	841	304.930176462928	1
0	843	304.930176462928	2
0	845	305.282924061414	1
0	847	305.282924061414	2
0	851	305.778027025863	1
0	853	305.778027025863	2
0	859	309.40012753325	1
0	861	309.40012753325	2
0	865	311.948546317081	1
0	867	311.948546317081	2
0	869	312.054268394375	1
0	871	312.054268394375	2
0	875	314.006733837237	1
0	877	314.006733837237	2
0	881	314.681232819271	1
0	883	314.681232819271	2
0	893	318.032195433903	1
0	895	318.032195433903	2
0	897	319.61095089551	1
0	899	319.61095089551	2
0	901	319.647828883828	1
0	903	319.647828883828	2
0	905	319.680311776428	1
0	907	319.680311776428	2
0	917	325.148147417397	1
0	919	325.148147417397	2
0	921	326.138661245851	1
0	923	326.138661245851	2
0	929	330.969172814025	1
0	931	330.969172814025	2
0	935	334.392838202326	1
0	937	334.392838202326	2
0	941	334.582273744533	1
0	943	334.582273744533	2
0	945	335.469356457611	1
0	947	335.469356457611	2
0	949	335.507691776654	1
0	951	335.507691776654	2
0	957	336.703462952014	1
0	959	336.703462952014	2
0	961	336.765140793537	1
0	963	336.765140793537	2
0	965	337.395532297642	1
0	967	337.395532297642	2
0	969	337.400704127831	1
0	971	337.400704127831	2
0	977	338.538128905067	1
0	979	338.538128905067	2
0	985	340.307588045309	1
0	987	340.307588045309	2
0	995	349.960281664416	1
0	997	349.960281664416	2
0	999	351.103985245185	1
0	1001	351.103985245185	2
0	1007	352.004159441711	1
0	1009	352.004159441711	2
0	1013	356.133302188798	1
0	1015	356.133302188798	2
0	1017	357.460687757446	1
0	1019	357.460687757446	2
0	1025	360.184765826936	1
0	1027	360.184765826936	2
0	1031	362.991085012434	1
0	1033	362.991085012434	2
0	1037	363.773272367151	1
0	1039	363.773272367151	2
0	1043	366.431977064439	1
0	1045	366.431977064439	2
0	1047	366.842559124915	1
0	1049	366.842559124915	2
0	1051	367.125897688869	1
0	1053	367.125897688869	2
0	1055	367.145941605756	1
0	1057	367.145941605756	2
0	1059	368.079690043464	1
0	1061	368.079690043464	2
0	1063	368.101409395794	1
0	1065	368.101409395794	2
0	1077	371.875247153783	1
0	1079	371.875247153783	2
0	1081	372.432471911144	1
0	1083	372.432471911144	2
0	1089	374.711510823266	1
0	1091	374.711510823266	2
0	1093	376.972582203741	1
0	1095	376.972582203741	2
0	1101	381.31267010553	1
0	1103	381.31267010553	2
0	1105	381.646115434205	1
0	1107	381.646115434205	2
0	1115	387.509532837616	1
0	1117	387.509532837616	2
0	1119	388.205087086356	1
0	1121	388.205087086356	2
0	1125	390.873254145575	1
0	1127	390.873254145575	2
0	1133	392.164022455494	1
0	1135	392.164022455494	2
0	1139	392.524351367389	1
0	1141	392.524351367389	2
0	1143	396.038526660783	1
0	1145	396.038526660783	2
0	1149	397.590270799898	1
0	1151	397.590270799898	2
0	1153	398.464716237496	1
0	1155	398.464716237496	2
0	1163	402.155007412907	1
0	1165	402.155007412907	2
0	1167	402.219650690939	1
0	1169	402.219650690939	2
0	1171	402.359927543919	1
0	1173	402.359927543919	2
0	1179	404.338624924464	1
0	1181	404.338624924464	2
0	1183	406.354031263363	1
0	1185	406.354031263363	2
0	1189	409.291097277419	1
0	1191	409.291097277419	2
0	1195	410.455699805125	1
0	1197	410.455699805125	2
0	1205	414.366163501132	1
0	1207	414.366163501132	2
0	1209	415.327605459624	1
0	1211	415.327605459624	2
0	1217	422.019924992843	1
0	1219	422.019924992843	2
0	1223	425.050926622396	1
0	1225	425.050926622396	2
0	1227	426.161090409612	1
0	1229	426.161090409612	2
0	1233	427.010686437631	1
0	1235	427.010686437631	2
0	1237	428.560193307372	1
0	1239	428.560193307372	2
0	1243	429.688694997631	1
0	1245	429.688694997631	2
0	1249	432.741031382569	1
0	1251	432.741031382569	2
0	1255	434.94222289345	1
0	1257	434.94222289345	2
0	1261	437.301556562724	1
0	1263	437.301556562724	2
0	1265	438.144257478006	1
0	1267	438.144257478006	2
0	1271	439.859258939074	1
0	1273	439.859258939074	2
0	1277	440.944948945824	1
0	1279	440.944948945824	2
0	1281	441.087080097085	1
0	1283	441.087080097085	2
0	1287	441.29235980511	1
0	1289	441.29235980511	2
0	1293	441.805492032209	1
0	1295	441.805492032209	2
0	1303	445.75245299825	1
0	1305	445.75245299825	2
0	1309	446.411851422528	1
0	1311	446.411851422528	2
0	1313	446.679413857158	1
0	1315	446.679413857158	2
0	1317	446.833739326024	1
0	1319	446.833739326024	2
0	1325	447.622333531591	1
0	1327	447.622333531591	2
0	1331	450.451759389243	1
0	1333	450.451759389243	2
0	1337	451.504313649012	1
0	1339	451.504313649012	2
0	1347	454.329592652296	1
0	1349	454.329592652296	2
0	1353	454.959501214784	1
0	1355	454.959501214784	2
0	1361	458.982024159948	1
0	1363	458.982024159948	2
0	1367	466.281292885864	1
0	1369	466.281292885864	2
0	1371	469.102573611953	1
0	1373	469.102573611953	2
0	1379	474.993539635056	1
0	1381	474.993539635056	2
0	1383	475.39846927098	1
0	1385	475.39846927098	2
0	1391	484.131540650233	1
0	1393	484.131540650233	2
0	1395	484.214059386657	1
0	1397	484.214059386657	2
0	1401	485.219820786583	1
0	1403	485.219820786583	2
0	1407	487.045147332585	1
0	1409	487.045147332585	2
0	1411	487.371330141863	1
0	1413	487.371330141863	2
0	1415	487.754723652188	1
0	1417	487.754723652188	2
0	1419	488.076649406757	1
0	1421	488.076649406757	2
0	1423	488.103300255064	1
0	1425	488.103300255064	2
0	1427	488.106384102099	1
0	1429	488.106384102099	2
0	1433	488.19067383418	1
0	1435	488.19067383418	2
0	1441	489.299669006522	1
0	1443	489.299669006522	2
0	1457	495.970314075435	1
0	1459	495.970314075435	2
0	1461	496.373778745688	1
0	1463	496.373778745688	2
0	1469	499.107062317991	1
0	1471	499.107062317991	2
0	1473	499.9370730755	1
0	1475	499.9370730755	2
0	1477	502.042968168664	1
0	1479	502.042968168664	2
0	1485	504.092483424642	1
0	1487	504.092483424642	2
0	1489	504.597377431141	1
0	1491	504.597377431141	2
0	1493	507.37199328565	1
0	1495	507.37199328565	2
0	1499	508.58255274778	1
0	1501	508.58255274778	2
0	1507	508.968860019706	1
0	1509	508.968860019706	2
0	1511	509.557640347703	1
0	1513	509.557640347703	2
0	1521	512.14419635847	1
0	1523	512.14419635847	2
0	1525	513.13598585745	1
0	1527	513.13598585745	2
0	1531	514.113407986233	1
0	1533	514.113407986233	2
0	1541	516.76708527136	1
0	1543	516.76708527136	2
0	1547	524.032183037822	1
0	1549	524.032183037822	2
0	1551	524.58721753206	1
0	1553	524.58721753206	2
0	1557	525.050120342298	1
0	1559	525.050120342298	2
0	1561	526.154837489819	1
0	1563	526.154837489819	2
0	1571	528.686071669084	1
0	1573	528.686071669084	2
0	1577	532.502733843652	1
0	1579	532.502733843652	2
0	1583	533.366527193304	1
0	1585	533.366527193304	2
0	1589	534.269423759046	1
0	1591	534.269423759046	2
0	1593	535.089252655338	1
0	1595	535.089252655338	2
0	1597	536.131605445362	1
0	1599	536.131605445362	2
0	1601	536.256010834084	1
0	1603	536.256010834084	2
0	1605	536.531881290397	1
0	1607	536.531881290397	2
0	1609	537.993683360186	1
0	1611	537.993683360186	2
0	1623	542.293783743907	1
0	1625	542.293783743907	2
0	1627	542.650457005795	1
0	1629	542.650457005795	2
0	1635	545.254826275876	1
0	1637	545.254826275876	2
0	1639	545.746390337143	1
0	1641	545.746390337143	2
0	1649	549.349596098634	1
0	1651	549.349596098634	2
0	1653	549.561819154698	1
0	1655	549.561819154698	2
0	1657	550.471587013753	1
0	1659	550.471587013753	2
0	1663	552.250383752605	1
0	1665	552.250383752605	2
0	1667	553.522764664988	1
0	1669	553.522764664988	2
0	1671	554.433819510846	1
0	1673	554.433819510846	2
0	1681	561.483789667228	1
0	1683	561.483789667228	2
0	1685	563.004009207432	1
0	1687	563.004009207432	2
0	1691	564.034998681924	1
0	1693	564.034998681924	2
0	1695	564.119240088305	1
0	1697	564.119240088305	2
0	1699	564.775990343444	1
0	1701	564.775990343444	2
0	1705	566.972539629888	1
0	1707	566.972539629888	2
0	1709	567.009946463883	1
0	1711	567.009946463883	2
0	1715	567.476439334284	1
0	1717	567.476439334284	2
0	1719	567.522396496555	1
0	1722	567.632344351508	0
0	1727	567.84877630197	1
0	1730	568.062571897174	2
0	1733	568.764080791366	1
0	1735	568.764080791366	2
0	1741	569.441898709392	1
0	1743	569.441898709392	2
0	1749	569.981287602927	1
0	1751	569.981287602927	2
0	1757	572.578061890615	1
0	1759	572.578061890615	2
0	1761	573.034933267203	1
0	1763	573.034933267203	2
0	1767	573.480960839177	1
0	1769	573.480960839177	2
0	1781	575.828883217352	1
0	1783	575.828883217352	2
0	1785	576.403100192631	1
0	1787	576.403100192631	2
0	1791	576.711723780851	1
0	1793	576.711723780851	2
0	1795	576.993190821394	1
0	1797	576.993190821394	2
0	1803	582.781668857436	1
0	1805	582.781668857436	2
0	1807	583.263883938351	1
0	1809	583.263883938351	2
0	1817	585.539139599705	1
0	1819	585.539139599705	2
0	1823	586.823640575593	1
0	1825	586.823640575593	2
0	1827	588.532369042795	1
0	1829	588.532369042795	2
0	1831	589.60915048576	1
0	1833	589.60915048576	2
0	1835	589.894959207779	1
0	1837	589.894959207779	2
0	1843	590.697876209744	1
0	1845	590.697876209744	2
0	1847	591.009828648891	1
0	1849	591.009828648891	2
0	1855	594.634694400081	1
0	1857	594.634694400081	2
0	1861	595.700212014646	1
0	1863	595.700212014646	2
0	1865	595.760680478185	1
0	1867	595.760680478185	2
0	1873	599.560659752855	1
0	1875	599.560659752855	2
0	1877	600.084806959434	1
0	1879	600.084806959434	2
0	1887	604.812081719474	1
0	1889	604.812081719474	2
0	1891	605.561142376592	1
0	1893	605.561142376592	2
0	1901	606.820873817275	1
0	1903	606.820873817275	2
0	1905	613.243978997721	1
0	1907	613.243978997721	2
0	1913	617.292650773855	1
0	1915	617.292650773855	2
0	1917	617.786465514393	1
0	1919	617.786465514393	2
0	1925	620.226539540347	1
0	1927	620.226539540347	2
0	1931	621.416452613262	1
0	1933	621.416452613262	2
0	1935	621.606102765036	1
0	1937	621.606102765036	2
0	1939	623.043077043767	1
0	1941	623.043077043767	2
0	1943	623.834715885981	1
0	1945	623.834715885981	2
0	1953	627.844057133557	1
0	1955	627.844057133557	2
0	1961	630.581271069851	1
0	1963	630.581271069851	2
0	1967	631.49036970769	1
0	1969	631.49036970769	2
0	1973	634.254695813881	1
0	1975	634.254695813881	2
0	1979	635.668262634464	1
0	1981	635.668262634464	2
0	1985	636.66804792479	1
0	1987	636.66804792479	2
0	1991	637.252089095501	1
0	1993	637.252089095501	2
0	1997	640.581707102865	1
0	1999	640.581707102865	2
0	2003	643.519617735568	1
0	2005	643.519617735568	2
0	2009	646.696098821235	1
0	2011	646.696098821235	2
0	2013	647.083989348336	1
0	2015	647.083989348336	2
0	2019	648.93738291053	1
0	2021	648.93738291053	2
0	2023	649.764685868543	1
0	2025	649.764685868543	2
0	2031	654.842418434566	1
0	2033	654.842418434566	2
0	2037	655.681260512506	1
0	2039	655.681260512506	2
0	2045	657.773937553918	1
0	2047	657.773937553918	2
0	2049	658.226135048773	1
0	2051	658.226135048773	2
0	2057	662.760663011096	1
0	2059	662.760663011096	2
0	2063	666.135097260728	1
0	2065	666.135097260728	2
0	2069	669.662084700071	1
0	2071	669.662084700071	2
0	2073	671.775389578406	1
0	2075	671.775389578406	2
0	2081	674.752818349742	1
0	2083	674.752818349742	2
0	2085	677.312302756331	1
0	2087	677.312302756331	2
0	2093	681.191395354655	1
0	2095	681.191395354655	2
0	2099	688.696700588152	1
0	2101	688.696700588152	2
0	2103	690.058775079044	1
0	2105	690.058775079044	2
0	2107	690.825768383478	1
0	2109	690.825768383478	2
0	2115	692.933967129386	1
0	2117	692.933967129386	2
0	2119	693.144610253153	1
0	2121	693.144610253153	2
0	2123	693.148379117291	1
0	2125	693.148379117291	2
0	2127	693.254957375345	1
0	2129	693.254957375345	2
0	2133	695.382266656537	1
0	2135	695.382266656537	2
0	2137	697.284193713693	1
0	2139	697.284193713693	2
0	2149	698.83012934285	1
0	2151	698.83012934285	2
0	2157	703.48070301071	1
0	2159	703.48070301071	2
0	2161	704.154065080714	1
0	2163	704.154065080714	2
0	2169	706.149432183285	1
0	2171	706.149432183285	2
0	2175	707.454135008736	1
0	2177	707.454135008736	2
0	2183	709.699675165363	1
0	2185	709.699675165363	2
0	2189	711.010311659479	1
0	2191	711.010311659479	2
0	2193	711.359677880407	1
0	2195	711.359677880407	2
0	2197	711.42328264663	1
0	2199	711.42328264663	2
0	2207	717.21957181497	1
0	2209	717.21957181497	2
0	2213	720.202195671047	1
0	2215	720.202195671047	2
0	2219	725.640513699555	1
0	2221	725.640513699555	2
0	2223	726.167605116656	1
0	2225	726.167605116656	2
0	2227	726.378588548453	1
0	2229	726.378588548453	2
0	2233	728.926067969477	1
0	2235	728.926067969477	2
0	2239	731.408868286026	1
0	2241	731.408868286026	2
0	2243	731.968151001996	1
0	2245	731.968151001996	2
0	2253	734.020210803656	1
0	2255	734.020210803656	2
0	2261	734.461503873802	1
0	2263	734.461503873802	2
0	2265	734.912545379691	1
0	2267	734.912545379691	2
0	2273	739.664135477619	1
0	2275	739.664135477619	2
0	2277	741.398534204933	1
0	2279	741.398534204933	2
0	2281	742.40956729922	1
0	2283	742.40956729922	2
0	2291	745.444721213512	1
0	2293	745.444721213512	2
0	2295	745.615574201929	1
0	2297	745.615574201929	2
0	2301	746.960121210639	1
0	2303	746.960121210639	2
0	2307	749.560394782754	1
0	2309	749.560394782754	2
0	2313	750.791620339755	1
0	2315	750.791620339755	2
0	2319	754.752282371364	1
0	2321	754.752282371364	2
0	2325	755.286894545862	1
0	2327	755.286894545862	2
0	2331	755.998877097186	1
0	2333	755.998877097186	2
0	2337	757.529207735185	1
0	2339	757.529207735185	2
0	2343	760.610345761693	1
0	2345	760.610345761693	2
0	2349	762.650855746076	1
0	2351	762.650855746076	2
0	2357	765.572036407413	1
0	2359	765.572036407413	2
0	2363	769.167773175176	1
0	2365	769.167773175176	2
0	2369	771.371337080175	1
0	2371	771.371337080175	2
0	2373	771.651849494007	1
0	2375	771.651849494007	2
0	2377	772.133296458507	1
0	2379	772.133296458507	2
0	2385	773.105266383117	1
0	2387	773.105266383117	2
0	2391	776.783756034294	1
0	2393	776.783756034294	2
0	2395	776.856637947986	1
0	2397	776.856637947986	2
0	2405	778.198065479744	1
0	2407	778.198065479744	2
0	2409	780.158652964782	1
0	2411	780.158652964782	2
0	2415	780.789328647713	1
0	2417	780.789328647713	2
0	2419	782.014894964381	1
0	2421	782.014894964381	2
0	2429	783.629436878941	1
0	2431	783.629436878941	2
0	2435	786.361441394536	1
0	2437	786.361441394536	2
0	2441	791.035580483606	1
0	2443	791.035580483606	2
0	2445	791.499957781021	1
0	2447	791.499957781021	2
0	2449	791.790480477508	1
0	2451	791.790480477508	2
0	2453	792.518731846164	1
0	2455	792.518731846164	2
0	2461	793.844248950911	1
0	2463	793.844248950911	2
0	2471	808.422033326005	1
0	2473	808.422033326005	2
0	2475	810.890248280138	1
0	2477	810.890248280138	2
0	2481	812.431630521796	1
0	2483	812.431630521796	2
0	2487	812.830407251357	1
0	2489	812.830407251357	2
0	2491	813.016062263141	1
0	2493	813.016062263141	2
0	2497	813.652085815512	1
0	2499	813.652085815512	2
0	2503	814.681065187081	1
0	2505	814.681065187081	2
0	2507	814.819976602608	1
0	2509	814.819976602608	2
0	2515	816.776093719256	1
0	2517	816.776093719256	2
0	2519	816.880227481756	1
0	2521	816.880227481756	2
0	2523	817.604677549053	1
0	2525	817.604677549053	2
0	2527	818.055076481821	1
0	2529	818.055076481821	2
0	2541	825.895546844189	1
0	2543	825.895546844189	2
0	2545	826.537372129649	1
0	2547	826.537372129649	2
0	2551	827.37339888921	1
0	2553	827.37339888921	2
0	2559	829.420302743701	1
0	2561	829.420302743701	2
0	2565	831.622091131641	1
0	2567	831.622091131641	2
0	2571	834.99333229576	1
0	2573	834.99333229576	2
0	2577	835.875029288198	1
0	2579	835.875029288198	2
0	2585	851.377434078862	1
0	2587	851.377434078862	2
0	2589	852.615769827143	1
0	2591	852.615769827143	2
0	2595	854.505762256195	1
0	2597	854.505762256195	2
0	2601	861.705329448982	1
0	2603	861.705329448982	2
0	2605	862.163004486134	1
0	2607	862.163004486134	2
0	2609	862.522292778062	1
0	2611	862.522292778062	2
0	2613	862.879165492184	1
0	2615	862.879165492184	2
0	2625	871.473194277558	1
0	2627	871.473194277558	2
0	2633	875.486443362255	1
0	2635	875.486443362255	2
0	2639	877.402457485579	1
0	2641	877.402457485579	2
0	2645	882.907064503941	1
0	2647	882.907064503941	2
0	2649	883.238860614225	1
0	2651	883.238860614225	2
0	2653	884.187600470864	1
0	2655	884.187600470864	2
0	2659	885.667063869605	1
0	2661	885.667063869605	2
0	2663	885.909521150939	1
0	2665	885.909521150939	2
0	2675	889.815030902325	1
0	2677	889.815030902325	2
0	2679	890.21118354943	1
0	2681	890.21118354943	2
0	2683	891.233316655025	1
0	2685	891.233316655025	2
0	2687	892.108449258132	1
0	2689	892.108449258132	2
0	2697	892.535336108462	1
0	2699	892.535336108462	2
0	2703	892.795639856888	1
0	2705	892.795639856888	2
0	2711	897.023450810174	1
0	2713	897.023450810174	2
0	2717	900.344215119018	1
0	2719	900.344215119018	2
0	2721	900.899760794332	1
0	2723	900.899760794332	2
0	2725	902.387572362668	1
0	2727	902.387572362668	2
0	2729	902.514515540583	1
0	2731	902.514515540583	2
0	2739	905.753785000975	1
0	2741	905.753785000975	2
0	2743	906.094377419479	1
0	2745	906.094377419479	2
0	2753	911.726616428909	1
0	2755	911.726616428909	2
0	2757	913.225875928529	1
0	2759	913.225875928529	2
0	2763	915.071222011255	1
0	2765	915.071222011255	2
0	2767	917.203126869373	1
0	2769	917.203126869373	2
0	2771	918.426484586465	1
0	2773	918.426484586465	2
0	2779	920.772255260411	1
0	2781	920.772255260411	2
0	2787	921.848401437896	1
0	2789	921.848401437896	2
0	2793	925.309371612758	1
0	2795	925.309371612758	2
0	2799	931.475801320009	1
0	2801	931.475801320009	2
0	2805	932.368457779795	1
0	2807	932.368457779795	2
0	2809	932.44404386395	1
0	2811	932.44404386395	2
0	2819	934.520850608928	1
0	2821	934.520850608928	2
0	2823	935.459770673247	1
0	2825	935.459770673247	2
0	2827	935.671795429139	1
0	2829	935.671795429139	2
0	2831	936.400945722409	1
0	2833	936.400945722409	2
0	2835	937.084200940787	1
0	2837	937.084200940787	2
0	2847	940.384374034032	1
0	2849	940.384374034032	2
0	2851	940.942444553805	1
0	2853	940.942444553805	2
0	2855	941.047250075216	1
0	2857	941.047250075216	2
0	2861	941.99917484273	1
0	2863	941.99917484273	2
0	2869	947.299185872892	1
0	2871	947.299185872892	2
0	2873	947.347657931353	1
0	2875	947.347657931353	2
0	2877	947.373769029446	1
0	2879	947.373769029446	2
0	2881	947.64080245643	1
0	2883	947.64080245643	2
0	2885	948.33471180774	1
0	2887	948.33471180774	2
0	2897	950.856845598377	1
0	2899	950.856845598377	2
0	2903	952.011221805219	1
0	2905	952.011221805219	2
0	2907	952.297820568089	1
0	2909	952.297820568089	2
0	2911	952.35566623812	1
0	2913	952.35566623812	2
0	2917	953.780466912306	1
0	2919	953.780466912306	2
0	2923	954.357922434273	1
0	2925	954.357922434273	2
0	2935	957.897478158296	1
0	2937	957.897478158296	2
0	2941	958.660879382167	1
0	2943	958.660879382167	2
0	2949	965.247271634465	1
0	2951	965.247271634465	2
0	2953	965.297986443841	1
0	2955	965.297986443841	2
0	2957	965.904298684064	1
0	2959	965.904298684064	2
0	2965	967.897344151232	1
0	2967	967.897344151232	2
0	2969	969.060568052936	1
0	2971	969.060568052936	2
0	2979	970.30496671992	1
0	2981	970.30496671992	2
0	2983	971.707413922519	1
0	2985	971.707413922519	2
0	2993	974.974041713281	1
0	2995	974.974041713281	2
0	2997	975.273965002893	1
0	2999	975.273965002893	2
0	3001	976.083215163145	1
0	3003	976.083215163145	2
0	3011	978.541660260229	1
0	3013	978.541660260229	2
0	3015	979.37671928119	1
0	3017	979.37671928119	2
0	3021	984.506249001035	1
0	3023	984.506249001035	2
0	3027	989.640312545341	1
0	3029	989.640312545341	2
0	3031	991.821377047663	1
0	3033	991.821377047663	2
0	3039	994.903082696055	1
0	3041	994.903082696055	2
0	3043	995.910061205569	1
0	3045	995.910061205569	2
0	3049	998.12155965699	1
0	3051	998.12155965699	2
0	3053	998.180345142656	1
0	3055	998.180345142656	2
1	321	100.404651402735	9.378411928722
1	325	101.852437959246	4.909694515411
1	333	102.351921687316	1.947270284581
1	341	105.097741656996	3.24530369775
1	347	106.227382468869	3.875460781553
1	351	110.611326696727	5.513585039731
1	355	116.278325763993	10.050943295124
1	359	117.676705565924	7.065378869197
1	363	120.098311297776	3.819985533783
1	375	122.55035281259	4.873647246666
1	381	123.862139440824	3.763828143048
1	389	130.315639427764	7.765286615174
1	393	131.425969686061	7.563830245237
1	397	132.205766143532	1.890126715768
1	407	135.076147195878	3.650177509817
1	411	140.47121539944	8.265449255908
1	417	142.955376543718	7.87922934784
1	421	144.412638280219	3.941422880779
1	431	148.729116050756	5.773739507038
1	437	150.342347431568	5.929709151349
1	443	152.047301589354	3.318185538598
1	447	153.048832026617	2.706484595049
1	455	158.271044244738	6.223742655384
1	459	158.282163941503	5.233331914886
1	467	160.889739188718	2.61869494398
1	471	161.769087297569	3.486923356066
1	475	162.247971714275	1.358232525557
1	481	163.146891621792	1.377804324223
1	491	167.359288924099	5.111317209824
1	495	168.262283639396	5.115392017604
1	499	169.661446982873	2.302158058774
1	509	172.579076092541	4.316792453145
1	515	177.496982561049	7.835535578176
1	521	180.998616950751	8.41954085821
1	525	182.059811352179	4.56282879113
1	531	184.052875991529	3.054259040778
1	537	184.889708028069	2.82989667589
1	541	185.851248191393	1.798372199864
1	549	192.415922077562	7.526214049493
1	555	194.498577122905	8.647328931512
1	563	200.831412951267	8.415490873705
1	569	204.085111471784	9.586534348879
1	573	204.606246737216	3.774833785949
1	581	208.833518339797	4.748406868013
1	585	210.628929183219	6.022682446003
1	593	213.714098133742	4.880579793945
1	597	215.233289463537	4.604360280318
1	605	222.135571939808	8.421473806066
1	611	223.846685525602	8.613396062065
1	615	225.142434416056	3.006862476248
1	619	226.235818029761	2.389132504159
1	623	228.063305848004	2.920871431948
1	627	228.288686102005	2.052868072244
1	633	229.208341396196	1.145035548192
1	639	229.694540090186	1.405853988181
1	651	232.986859456319	3.778518060123
1	657	236.188019858337	6.493479768151
1	665	237.805313140183	4.818453683864
1	669	242.315680901941	6.127661043604
1	677	247.60977645888	9.804463318697
1	683	255.210148645589	12.894467743648
1	689	260.205372004379	12.595595545499
1	693	260.287039399905	5.076890754316
1	697	262.92672340196	2.721351397581
1	707	267.460655046675	7.17361564677
1	713	271.098882026811	8.172158624851
1	717	272.636580032135	5.17592498546
1	723	273.41178694566	2.312904918849
1	727	274.424305716394	1.787725684259
1	733	275.074213179097	1.662426233437
1	743	280.579723983862	6.155418267468
1	749	281.826006032195	6.751792853098
1	755	285.651000727793	5.071276743931
1	761	286.129463697057	4.303457664862
1	765	286.129710880686	0.478710152893
1	769	286.324707810395	0.195244113338
1	773	286.709733770888	0.580022890202
1	783	288.156365877302	1.831658066907
1	791	292.396732142059	5.686998371171
1	797	295.469031978827	7.312666101525
1	803	296.978316338275	4.581584196216
1	807	297.618280276017	2.14924829719
1	811	297.671757183491	0.693440845216
1	819	301.747721105675	4.129440829658
1	823	302.392096620834	4.720339437343
1	829	302.70589636443	0.958175258755
1	837	304.113955261511	1.721858640677
1	841	304.930176462928	2.224280098498
1	845	305.282924061414	1.168968799903
1	851	305.778027025863	0.847850562935
1	859	309.40012753325	4.117203471836
1	865	311.948546317081	6.170519291218
1	869	312.054268394375	2.654140861125
1	875	314.006733837237	2.058187520156
1	881	314.681232819271	2.626964424896
1	893	318.032195433903	4.025461596666
1	897	319.61095089551	4.929718076239
1	901	319.647828883828	1.615633449925
1	905	319.680311776428	0.069360880918
1	917	325.148147417397	5.500318533569
1	921	326.138661245851	6.458349469423
1	929	330.969172814025	5.821025396628
1	935	334.392838202326	8.254176956475
1	941	334.582273744533	3.613100930508
1	945	335.469356457611	1.076518255285
1	949	335.507691776654	0.925418032121
1	957	336.703462952014	1.234106494403
1	961	336.765140793537	1.257449016883
1	965	337.395532297642	0.692069345628
1	969	337.400704127831	0.635563334294
1	977	338.538128905067	1.142596607425
1	985	340.307588045309	2.906883917478
1	995	349.960281664416	11.422152759349
1	999	351.103985245185	10.796397199876
1	1007	352.004159441711	2.043877777295
1	1013	356.133302188798	5.029316943613
1	1017	357.460687757446	5.456528315735
1	1025	360.184765826936	4.051463638138
1	1031	362.991085012434	5.530397254988
1	1037	363.773272367151	3.588506540215
1	1043	366.431977064439	3.440892052005
1	1047	366.842559124915	3.069286757764
1	1051	367.125897688869	0.69392062443
1	1055	367.145941605756	0.303382480841
1	1059	368.079690043464	0.953792354595
1	1063	368.101409395794	0.955467790038
1	1077	371.875247153783	3.795557110319