version 3
run General-32-20221103-10:28:22-6760
attr configname General
attr datetime 20221103-10:28:22
attr datetimef 20221103-102822
attr experiment General
attr inifile block.ini
attr iterationvars "$0=4, $1=10"
attr iterationvarsd 4/10
attr iterationvarsf 4,10-
attr measurement "$0=4, $1=10"
attr network Block
attr processid 6760
attr repetition 2
attr replication #2
attr resultdir results
attr runnumber 32
attr seedset 32
config network Block
config repeat 5
config sim-time-limit 1000s
config warmup-period 100s
config **.alloca.resourceModuleName "\"risorse\""
config **.dealloca.resourceModuleName "\"risorse\""
config **.is.delay exponential(3s)
config **.servente.serviceTime exponential(4s)
config **.dealloca.resourceAmount 2
config **.alloca.resourceAmount 2
config **.risorse.amount 6
config **.sorgente.numJobs (10)
config **.result-recording-modes all

vector 0 Block.servente queueLength:vector ETV
attr interpolationmode sample-hold
attr recordingmode vector
attr title "queue length"
vector 1 Block.servente queueingTime:vector ETV
attr interpolationmode none
attr recordingmode vector
attr title "queueing time at dequeue"
attr unit s
vector 2 Block.alloca queueLength:vector ETV
attr interpolationmode sample-hold
attr recordingmode vector
attr title "queue length"
vector 3 Block.alloca queueingTime:vector ETV
attr interpolationmode none
attr recordingmode vector
attr title "queueing time at dequeue"
attr unit s
vector 4 Block.risorse amount:vector ETV
attr interpolationmode sample-hold
attr recordingmode vector
attr title "available resource"
vector 5 Block.is delayedJobs:vector ETV
attr interpolationmode sample-hold
attr recordingmode vector
attr title "number of delayed jobs"
0	143	100.220045977315	1
0	145	100.220045977315	2
0	149	102.103231971803	1
0	151	102.103231971803	2
0	153	102.108428682002	1
0	155	102.108428682002	2
0	159	102.908181298056	1
0	161	102.908181298056	2
0	165	110.064962089955	1
0	167	110.064962089955	2
0	169	110.581949248023	1
0	171	110.581949248023	2
0	175	115.445828368624	1
0	177	115.445828368624	2
0	183	120.656121752864	1
0	185	120.656121752864	2
0	191	130.959013646739	1
0	193	130.959013646739	2
0	197	133.495073926907	1
0	199	133.495073926907	2
0	201	134.510898225744	1
0	203	134.510898225744	2
0	209	137.211232202021	1
0	211	137.211232202021	2
0	215	141.725280767663	1
0	217	141.725280767663	2
0	221	145.704846726897	1
0	223	145.704846726897	2
0	225	147.467345033973	1
0	227	147.467345033973	2
0	229	147.743245978778	1
0	231	147.743245978778	2
0	239	156.588260317035	1
0	241	156.588260317035	2
0	245	163.327407987204	1
0	247	163.327407987204	2
0	251	167.580116382073	1
0	253	167.580116382073	2
0	257	170.358586315227	1
0	259	170.358586315227	2
0	263	174.635206433029	1
0	265	174.635206433029	2
0	267	176.62276320302	1
0	269	176.62276320302	2
0	271	178.201311972268	1
0	273	178.201311972268	2
0	279	181.156330853846	1
0	281	181.156330853846	2
0	283	183.194550142663	1
0	285	183.194550142663	2
0	293	190.276105635359	1
0	295	190.276105635359	2
0	299	192.033397755484	1
0	301	192.033397755484	2
0	305	199.120080485133	1
0	307	199.120080485133	2
0	309	199.653809480886	1
0	311	199.653809480886	2
0	315	202.211698513576	1
0	317	202.211698513576	2
0	323	204.689357240826	1
0	325	204.689357240826	2
0	329	214.054765307926	1
0	331	214.054765307926	2
0	335	215.357485933947	1
0	337	215.357485933947	2
0	341	218.189992463676	1
0	343	218.189992463676	2
0	347	229.811466011543	1
0	349	229.811466011543	2
0	351	230.492696257985	1
0	353	230.492696257985	2
0	357	234.562379262411	1
0	359	234.562379262411	2
0	365	251.743692362958	1
0	367	251.743692362958	2
0	371	254.220512175446	1
0	373	254.220512175446	2
0	377	259.324723606516	1
0	379	259.324723606516	2
0	383	262.601672637579	1
0	385	262.601672637579	2
0	389	271.37735373798	1
0	391	271.37735373798	2
0	395	287.081914191573	1
0	397	287.081914191573	2
0	399	288.418067471204	1
0	401	288.418067471204	2
0	407	290.894042399847	1
0	409	290.894042399847	2
0	413	300.347195032574	1
0	415	300.347195032574	2
0	419	312.438084284946	1
0	421	312.438084284946	2
0	425	317.106923308672	1
0	427	317.106923308672	2
0	431	323.352665764362	1
0	433	323.352665764362	2
0	437	335.424012651336	1
0	439	335.424012651336	2
0	443	340.380596080127	1
0	445	340.380596080127	2
0	447	341.274390711104	1
0	449	341.274390711104	2
0	455	347.844962289923	1
0	457	347.844962289923	2
0	461	351.897499744156	1
0	463	351.897499744156	2
0	467	359.030650437696	1
0	469	359.030650437696	2
0	471	359.464319716016	1
0	473	359.464319716016	2
0	475	360.072826183517	1
0	477	360.072826183517	2
0	479	360.566238936263	1
0	481	360.566238936263	2
0	485	362.209740984882	1
0	487	362.209740984882	2
0	491	363.246220566826	1
0	493	363.246220566826	2
0	503	367.454424692706	1
0	505	367.454424692706	2
0	509	369.573014898158	1
0	511	369.573014898158	2
0	515	375.151858136188	1
0	517	375.151858136188	2
0	519	375.199555090947	1
0	521	375.199555090947	2
0	523	375.350160756019	1
0	525	375.350160756019	2
0	533	379.475348534093	1
0	535	379.475348534093	2
0	539	383.101399785707	1
0	541	383.101399785707	2
0	543	384.175644398149	1
0	545	384.175644398149	2
0	551	387.995095413223	1
0	553	387.995095413223	2
0	555	389.971073498616	1
0	557	389.971073498616	2
0	563	394.360421134181	1
0	565	394.360421134181	2
0	567	397.199576477138	1
0	569	397.199576477138	2
0	573	398.749857317249	1
0	575	398.749857317249	2
0	579	400.67909446708	1
0	581	400.67909446708	2
0	583	402.642257262501	1
0	585	402.642257262501	2
0	593	411.63953681952	1
0	595	411.63953681952	2
0	599	415.438645568265	1
0	601	415.438645568265	2
0	605	419.964820729422	1
0	607	419.964820729422	2
0	609	420.532427650202	1
0	611	420.532427650202	2
0	617	421.862703450293	1
0	619	421.862703450293	2
0	621	421.974145551367	1
0	623	421.974145551367	2
0	627	423.161717808628	1
0	629	423.161717808628	2
0	631	424.670752384391	1
0	633	424.670752384391	2
0	635	425.054669960807	1
0	637	425.054669960807	2
0	641	425.913663399037	1
0	643	425.913663399037	2
0	649	427.403582482803	1
0	651	427.403582482803	2
0	657	430.269115030638	1
0	659	430.269115030638	2
0	663	432.063631858976	1
0	665	432.063631858976	2
0	671	437.545870519213	1
0	673	437.545870519213	2
0	677	440.179620350689	1
0	679	440.179620350689	2
0	681	443.525325989331	1
0	683	443.525325989331	2
0	689	458.432327518339	1
0	691	458.432327518339	2
0	695	461.111389428361	1
0	697	461.111389428361	2
0	699	462.285876066226	1
0	701	462.285876066226	2
0	707	477.616089343328	1
0	709	477.616089343328	2
0	711	478.304091650314	1
0	713	478.304091650314	2
0	719	482.499884013803	1
0	721	482.499884013803	2
0	723	482.527970811804	1
0	725	482.527970811804	2
0	727	482.898268884718	1
0	729	482.898268884718	2
0	735	485.106133221098	1
0	737	485.106133221098	2
0	741	488.464406819783	1
0	743	488.464406819783	2
0	747	492.636443685451	1
0	749	492.636443685451	2
0	751	493.106118072743	1
0	753	493.106118072743	2
0	757	494.684254055989	1
0	759	494.684254055989	2
0	765	508.758348057707	1
0	767	508.758348057707	2
0	771	509.298350761655	1
0	773	509.298350761655	2
0	775	509.394872643477	1
0	777	509.394872643477	2
0	785	516.768743485758	1
0	787	516.768743485758	2
0	789	517.664751375367	1
0	791	517.664751375367	2
0	793	519.967839625465	1
0	795	519.967839625465	2
0	801	521.069238044327	1
0	803	521.069238044327	2
0	805	521.498153290205	1
0	807	521.498153290205	2
0	811	522.190912462152	1
0	813	522.190912462152	2
0	815	522.370620868223	1
0	817	522.370620868223	2
0	823	523.611939484601	1
0	825	523.611939484601	2
0	833	531.818624180109	1
0	835	531.818624180109	2
0	837	532.566736962629	1
0	839	532.566736962629	2
0	841	532.949339101143	1
0	843	532.949339101143	2
0	851	537.577606457099	1
0	853	537.577606457099	2
0	857	543.845290359729	1
0	859	543.845290359729	2
0	861	545.290312570041	1
0	863	545.290312570041	2
0	869	551.927689109872	1
0	871	551.927689109872	2
0	873	552.132895592833	1
0	875	552.132895592833	2
0	879	553.141159040861	1
0	881	553.141159040861	2
0	885	557.035496398319	1
0	887	557.035496398319	2
0	893	560.127653367453	1
0	895	560.127653367453	2
0	899	565.190732053981	1
0	901	565.190732053981	2
0	905	573.563086814361	1
0	907	573.563086814361	2
0	909	574.456999225458	1
0	911	574.456999225458	2
0	915	576.402179714098	1
0	917	576.402179714098	2
0	921	578.341867308039	1
0	923	578.341867308039	2
0	929	610.728104524157	1
0	931	610.728104524157	2
0	935	613.594300283237	1
0	937	613.594300283237	2
0	939	614.709747555456	1
0	941	614.709747555456	2
0	945	617.546557223547	1
0	947	617.546557223547	2
0	949	619.367471332537	1
0	951	619.367471332537	2
0	959	623.119751405518	1
0	961	623.119751405518	2
0	965	629.228880292956	1
0	967	629.228880292956	2
0	969	632.049966932842	1
0	971	632.049966932842	2
0	975	634.631797128553	1
0	977	634.631797128553	2
0	981	637.722406654916	1
0	983	637.722406654916	2
0	985	637.829090861821	1
0	987	637.829090861821	2
0	995	640.028110009131	1
0	997	640.028110009131	2
0	1001	644.585092171648	1
0	1003	644.585092171648	2
0	1007	649.583312833844	1
0	1009	649.583312833844	2
0	1011	652.534130886925	1
0	1013	652.534130886925	2
0	1019	658.760503589028	1
0	1021	658.760503589028	2
0	1025	661.473736587014	1
0	1027	661.473736587014	2
0	1029	664.093203724619	1
0	1031	664.093203724619	2
0	1035	668.709375027842	1
0	1037	668.709375027842	2
0	1043	675.829865246748	1
0	1045	675.829865246748	2
0	1049	676.789666146113	1
0	1051	676.789666146113	2
0	1055	677.501601426414	1
0	1057	677.501601426414	2
0	1061	687.527595152835	1
0	1063	687.527595152835	2
0	1067	695.379861700057	1
0	1069	695.379861700057	2
0	1071	698.895822268431	1
0	1073	698.895822268431	2
0	1079	712.297261185326	1
0	1081	712.297261185326	2
0	1083	713.781275064949	1
0	1085	713.781275064949	2
0	1089	715.417092809815	1
0	1091	715.417092809815	2
0	1097	722.013289131323	1
0	1099	722.013289131323	2
0	1103	731.430108521174	1
0	1105	731.430108521174	2
0	1109	744.969490162392	1
0	1111	744.969490162392	2
0	1113	745.559322538393	1
0	1115	745.559322538393	2
0	1121	747.022000014248	1
0	1123	747.022000014248	2
0	1125	749.686045601322	1
0	1127	749.686045601322	2
0	1129	752.8503460736	1
0	1131	752.8503460736	2
0	1135	752.98565761183	1
0	1137	752.98565761183	2
0	1145	756.859125793128	1
0	1147	756.859125793128	2
0	1149	761.950807105065	1
0	1151	761.950807105065	2
0	1157	765.39955401269	1
0	1159	765.39955401269	2
0	1163	766.667864336458	1
0	1165	766.667864336458	2
0	1167	767.654735396385	1
0	1169	767.654735396385	2
0	1173	767.956620286232	1
0	1175	767.956620286232	2
0	1181	779.323849660603	1
0	1183	779.323849660603	2
0	1187	781.021180133841	1
0	1189	781.021180133841	2
0	1191	783.300763403362	1
0	1193	783.300763403362	2
0	1197	787.695909479929	1
0	1199	787.695909479929	2
0	1201	788.205963065213	1
0	1203	788.205963065213	2
0	1211	796.871273257847	1
0	1213	796.871273257847	2
0	1217	805.008780942597	1
0	1219	805.008780942597	2
0	1221	807.410213801382	1
0	1223	807.410213801382	2
0	1225	807.66092999364	1
0	1227	807.66092999364	2
0	1233	809.995906193726	1
0	1235	809.995906193726	2
0	1237	813.069656191531	1
0	1239	813.069656191531	2
0	1247	819.459083508486	1
0	1249	819.459083508486	2
0	1251	822.456920205858	1
0	1253	822.456920205858	2
0	1255	823.680382896463	1
0	1257	823.680382896463	2
0	1261	825.902753567344	1
0	1263	825.902753567344	2
0	1271	831.764200185352	1
0	1273	831.764200185352	2
0	1277	840.713054106874	1
0	1279	840.713054106874	2
0	1283	847.897043048845	1
0	1285	847.897043048845	2
0	1289	849.724854888557	1
0	1291	849.724854888557	2
0	1295	852.713679388118	1
0	1297	852.713679388118	2
0	1301	855.198802655085	1
0	1303	855.198802655085	2
0	1305	855.459786202057	1
0	1307	855.459786202057	2
0	1309	855.647413758829	1
0	1311	855.647413758829	2
0	1317	856.723362756216	1
0	1319	856.723362756216	2
0	1325	865.248289855507	1
0	1327	865.248289855507	2
0	1329	867.728801158375	1
0	1331	867.728801158375	2
0	1337	878.747456798037	1
0	1339	878.747456798037	2
0	1343	879.673204583771	1
0	1345	879.673204583771	2
0	1347	879.84144841978	1
0	1349	879.84144841978	2
0	1351	880.652822745834	1
0	1353	880.652822745834	2
0	1355	881.564893012365	1
0	1357	881.564893012365	2
0	1359	883.14343762336	1
0	1361	883.14343762336	2
0	1371	892.102417900475	1
0	1373	892.102417900475	2
0	1379	897.09487019434	1
0	1381	897.09487019434	2
0	1383	898.215105437847	1
0	1385	898.215105437847	2
0	1391	901.453657185878	1
0	1393	901.453657185878	2
0	1395	902.523759279789	1
0	1397	902.523759279789	2
0	1401	907.336227339522	1
0	1403	907.336227339522	2
0	1405	911.770206592896	1
0	1407	911.770206592896	2
0	1409	912.015903262337	1
0	1411	912.015903262337	2
0	1421	917.76871173416	1
0	1423	917.76871173416	2
0	1425	919.861413753298	1
0	1427	919.861413753298	2
0	1431	922.565949002238	1
0	1433	922.565949002238	2
0	1435	923.331284129622	1
0	1437	923.331284129622	2
0	1443	926.36191996936	1
0	1445	926.36191996936	2
0	1451	932.795794736467	1
0	1453	932.795794736467	2
0	1455	933.603667888433	1
0	1457	933.603667888433	2
0	1459	933.863775703188	1
0	1461	933.863775703188	2
0	1467	938.168231772572	1
0	1469	938.168231772572	2
0	1473	941.024564181659	1
0	1475	941.024564181659	2
0	1479	944.475734766031	1
0	1481	944.475734766031	2
0	1483	947.559366450249	1
0	1485	947.559366450249	2
0	1489	948.88869492378	1
0	1491	948.88869492378	2
0	1495	950.503985970297	1
0	1497	950.503985970297	2
0	1501	951.772551552186	1
0	1503	951.772551552186	2
0	1509	953.712090190598	1
0	1511	953.712090190598	2
0	1513	953.896118502555	1
0	1515	953.896118502555	2
0	1517	955.482380210095	1
0	1519	955.482380210095	2
0	1529	976.074538076874	1
0	1531	976.074538076874	2
0	1535	977.489281746217	1
0	1537	977.489281746217	2
0	1539	981.019913164915	1
0	1541	981.019913164915	2
0	1545	981.264225794198	1
0	1547	981.264225794198	2
0	1553	989.764041907296	1
0	1555	989.764041907296	2
0	1559	991.016502500342	1
0	1561	991.016502500342	2
1	143	100.220045977315	16.884599809409
1	149	102.103231971803	4.291028261625
1	153	102.108428682002	1.888382704687
1	159	102.908181298056	0.804949326253
1	165	110.064962089955	7.956533407953
1	169	110.581949248023	7.673767949967
1	175	115.445828368624	5.380866278669
1	183	120.656121752864	10.074172504841
1	191	130.959013646739	15.513185278115
1	197	133.495073926907	12.838952174043
1	201	134.510898225744	3.551884579005
1	209	137.211232202021	3.716158275114
1	215	141.725280767663	7.214382541919
1	221	145.704846726897	8.493614524876
1	225	147.467345033973	5.74206426631
1	229	147.743245978778	2.038399251881
1	239	156.588260317035	9.120915283062
1	245	163.327407987204	15.584162008426
1	251	167.580116382073	10.991856065038
1	257	170.358586315227	7.031178328023
1	263	174.635206433029	7.055090050956
1	267	176.62276320302	6.264176887793
1	271	178.201311972268	3.566105539239
1	279	181.156330853846	4.533567650826
1	283	183.194550142663	4.993238170395
1	293	190.276105635359	9.119774781513
1	299	192.033397755484	8.838847612821
1	305	199.120080485133	8.843974849774
1	309	199.653809480886	7.620411725402
1	315	202.211698513576	3.091618028443
1	323	204.689357240826	5.03554775994
1	329	214.054765307926	11.84306679435
1	335	215.357485933947	10.668128693121
1	341	218.189992463676	4.13522715575
1	347	229.811466011543	14.453980077596
1	351	230.492696257985	12.302703794309
1	357	234.562379262411	4.750913250868
1	365	251.743692362958	21.250996104973
1	371	254.220512175446	19.658132913035
1	377	259.324723606516	7.581031243558
1	383	262.601672637579	8.381160462133
1	389	271.37735373798	12.052630131464
1	395	287.081914191573	24.480241553994
1	399	288.418067471204	17.040713733224
1	407	290.894042399847	3.812128208274
1	413	300.347195032574	11.92912756137
1	419	312.438084284946	21.544041885099
1	425	317.106923308672	16.759728276098
1	431	323.352665764362	10.914581479416
1	437	335.424012651336	18.317089342664
1	443	340.380596080127	17.027930315765
1	447	341.274390711104	5.850378059768
1	455	347.844962289923	7.464366209796
1	461	351.897499744156	10.623109033052
1	467	359.030650437696	11.185688147773
1	471	359.464319716016	7.56681997186
1	475	360.072826183517	1.042175745821
1	479	360.566238936263	1.101919220247
1	485	362.209740984882	2.136914801365
1	491	363.246220566826	2.679981630563
1	503	367.454424692706	5.244683707824
1	509	369.573014898158	6.326794331332
1	515	375.151858136188	7.697433443482
1	519	375.199555090947	5.626540192789
1	523	375.350160756019	0.198302619831
1	533	379.475348534093	4.275793443146
1	539	383.101399785707	7.751239029688
1	543	384.175644398149	4.700295864056
1	551	387.995095413223	4.893695627516
1	555	389.971073498616	5.795429100467
1	563	394.360421134181	6.365325720958
1	567	397.199576477138	7.228502978522
1	573	398.749857317249	4.389436183068
1	579	400.67909446708	3.479517989942
1	583	402.642257262501	3.892399945252
1	593	411.63953681952	10.96044235244
1	599	415.438645568265	12.796388305764
1	605	419.964820729422	8.325283909902
1	609	420.532427650202	5.093782081937
1	617	421.862703450293	1.897882720871
1	621	421.974145551367	1.441717901165
1	627	423.161717808628	1.299014358335
1	631	424.670752384391	2.696606833024
1	635	425.054669960807	1.892952152179
1	641	425.913663399037	1.242911014646
1	649	427.403582482803	2.348912521996
1	657	430.269115030638	4.355451631601
1	663	432.063631858976	4.660049376173
1	671	437.545870519213	7.276755488575
1	677	440.179620350689	8.115988491713
1	681	443.525325989331	5.979455470118
1	689	458.432327518339	18.25270716765
1	695	461.111389428361	17.58606343903
1	699	462.285876066226	3.853548547887
1	707	477.616089343328	16.504699914967
1	711	478.304091650314	16.018215584088
1	719	482.499884013803	4.883794670475
1	723	482.527970811804	4.22387916149
1	727	482.898268884718	0.398384870915
1	735	485.106133221098	2.578162409294
1	741	488.464406819783	5.566137935065
1	747	492.636443685451	7.530310464353
1	751	493.106118072743	4.64171125296
1	757	494.684254055989	2.047810370538
1	765	508.758348057707	15.652229984964
1	771	509.298350761655	14.614096705666
1	775	509.394872643477	0.63652458577
1	785	516.768743485758	7.470392724103
1	789	517.664751375367	8.26987873189
1	793	519.967839625465	3.199096139707
1	801	521.069238044327	3.40448666896
1	805	521.498153290205	1.53031366474
1	811	522.190912462152	1.121674417825
1	815	522.370620868223	0.872467578018
1	823	523.611939484601	1.421027022449
1	833	531.818624180109	9.448003311886
1	837	532.566736962629	8.954797478028
1	841	532.949339101143	1.130714921034
1	851	537.577606457099	5.01086949447
1	857	543.845290359729	10.895951258586
1	861	545.290312570041	7.712706112942
1	869	551.927689109872	8.082398750143
1	873	552.132895592833	6.842583022792
1	879	553.141159040861	1.213469930989
1	885	557.035496398319	4.902600805486
1	893	560.127653367453	6.986494326592
1	899	565.190732053981	8.155235655662
1	905	573.563086814361	13.435433446908
1	909	574.456999225458	9.266267171477
1	915	576.402179714098	2.839092899737
1	921	578.341867308039	3.884868082581
1	929	610.728104524157	34.325924810059
1	935	613.594300283237	35.252432975198
1	939	614.709747555456	3.981643031299
1	945	617.546557223547	3.95225694031
1	949	619.367471332537	4.657723777081
1	959	623.119751405518	5.573194181971
1	965	629.228880292956	9.861408960419
1	969	632.049966932842	8.930215527324
1	975	634.631797128553	5.402916835597
1	981	637.722406654916	5.672439722074
1	985	637.829090861821	3.197293733268
1	995	640.028110009131	2.305703354215
1	1001	644.585092171648	6.756001309827
1	1007	649.583312833844	9.555202824713
1	1011	652.534130886925	7.949038715277
1	1019	658.760503589028	9.177190755184
1	1025	661.473736587014	8.939605700089
1	1029	664.093203724619	5.332700135591
1	1035	668.709375027842	7.235638440828
1	1043	675.829865246748	11.736661522129
1	1049	676.789666146113	8.080291118271
1	1055	677.501601426414	1.671736179666
1	1061	687.527595152835	10.737929006722
1	1067	695.379861700057	17.878260273643
1	1071	698.895822268431	11.368227115596
1	1079	712.297261185326	16.917399485269
1	1083	713.781275064949	14.885452796518
1	1089	715.417092809815	3.119831624489
1	1097	722.013289131323	8.232014066374
1	1103	731.430108521174	16.013015711359
1	1109	744.969490162392	22.956201031069
1	1113	745.559322538393	14.129214017219
1	1121	747.022000014248	2.052509851856
1	1125	749.686045601322	4.126723062929
1	1129	752.8503460736	5.828346059352
1	1135	752.98565761183	3.299612010508
1	1145	756.859125793128	4.008779719528
1	1149	761.950807105065	8.965149493235
1	1157	765.39955401269	8.540428219562
1	1163	766.667864336458	4.717057231393
1	1167	767.654735396385	2.255181383695
1	1173	767.956620286232	1.288755949774
1	1181	779.323849660603	11.669114264218
1	1187	781.021180133841	13.064559847609
1	1191	783.300763403362	3.976913742759
1	1197	787.695909479929	6.674729346088
1	1201	788.205963065213	4.905199661851
1	1211	796.871273257847	9.175363777918
1	1217	805.008780942597	16.802817877384
1	1221	807.410213801382	10.538940543535
1	1225	807.66092999364	2.652149051043
1	1233	809.995906193726	2.585692392344
1	1237	813.069656191531	5.408726197891
1	1247	819.459083508486	9.46317731476
1	1251	822.456920205858	9.387264014327
1	1255	823.680382896463	4.221299387977
1	1261	825.902753567344	3.445833361486
1	1271	831.764200185352	8.083817288889
1	1277	840.713054106874	14.81030053953
1	1283	847.897043048845	16.132842863493
1	1289	849.724854888557	9.011800781683
1	1295	852.713679388118	4.816636339273
1	1301	855.198802655085	5.473947766528
1	1305	855.459786202057	2.746106813939
1	1309	855.647413758829	0.448611103744
1	1317	856.723362756216	1.263576554159
1	1325	865.248289855507	9.600876096678
1	1329	867.728801158375	11.005438402159
1	1337	878.747456798037	13.49916694253
1	1343	879.673204583771	11.944403425396
1	1347	879.84144841978	1.093991621743
1	1351	880.652822745834	0.979618162063
1	1355	881.564893012365	1.723444592585
1	1359	883.14343762336	2.490614877526
1	1371	892.102417900475	10.53752488811
1	1379	897.09487019434	13.95143257098
1	1383	898.215105437847	6.112687537372
1	1391	901.453657185878	4.358786991538
1	1395	902.523759279789	4.308653841942
1	1401	907.336227339522	5.882570153644
1	1405	911.770206592896	9.246447313107
1	1409	912.015903262337	4.679675922815
1	1421	917.76871173416	5.998505141264
1	1425	919.861413753298	7.845510490961
1	1431	922.565949002238	4.797237268078
1	1435	923.331284129622	3.469870376324
1	1443	926.36191996936	3.795970967122
1	1451	932.795794736467	9.464510606845
1	1455	933.603667888433	7.241747919073
1	1459	933.863775703188	1.067980966721
1	1467	938.168231772572	4.564563884139
1	1473	941.024564181659	7.160788478471
1	1479	944.475734766031	6.307502993459
1	1483	947.559366450249	6.53480226859
1	1489	948.88869492378	4.412960157749
1	1495	950.503985970297	2.944619520048
1	1501	951.772551552186	2.883856628406
1	1509	953.712090190598	3.208104220301
1	1513	953.896118502555	2.123566950369
1	1517	955.482380210095	1.770290019497
1	1529	976.074538076874	22.178419574319
1	1535	977.489281746217	22.006901536122
1	1539	981.019913164915	4.945375088041
1	1545	981.264225794198	3.774944047981
1	1553	989.764041907296	8.744128742381
1	1559	991.016502500342	9.752276706144
2	144	100.220045977315	6
2	148	102.024587073565	7
2	150	102.103231971803	6
2	154	102.108428682002	5
2	158	102.640157585654	6
2	160	102.908181298056	5
2	164	106.61530028664	6
2	166	110.064962089955	5
2	170	110.581949248023	4
2	174	110.59025192397	5
2	176	115.445828368624	4
2	180	115.553167454913	5
2	182	115.576432699501	6
2	184	120.656121752864	5
2	188	122.95254468422	6
2	190	124.489225312768	7
2	192	130.959013646739	6
2	196	131.505378834016	7
2	198	133.495073926907	6
2	202	134.510898225744	5
2	206	134.601361523895	6
2	208	134.649226114472	7
2	210	137.211232202021	6
2	214	138.028927435269	7
2	216	141.725280767663	6
2	220	145.095544042619	7
2	222	145.704846726897	6
2	226	147.467345033973	5
2	230	147.743245978778	4
2	234	148.940000759805	5
2	236	150.279899222025	6
2	238	151.03165946122	7
2	240	156.588260317035	6
2	244	158.632105081403	7
2	246	163.327407987204	6
2	250	165.555185251517	7
2	252	167.580116382073	6
2	256	168.643895918084	7
2	258	170.358586315227	6
2	262	172.224462069012	7
2	264	174.635206433029	6
2	268	176.62276320302	5
2	272	178.201311972268	4
2	276	178.709021995877	5
2	278	179.72416654479	6
2	280	181.156330853846	5
2	284	183.194550142663	4
2	288	185.061146380707	5
2	290	187.191487610802	6
2	292	189.165129536071	7
2	294	190.276105635359	6
2	298	190.355659792157	7
2	300	192.033397755484	6
2	304	193.060941287169	7
2	306	199.120080485133	6
2	310	199.653809480886	5
2	314	201.486408580814	6
2	316	202.211698513576	5
2	320	202.232556275365	6
2	322	203.788755882253	7
2	324	204.689357240826	6
2	328	206.320103448401	7
2	330	214.054765307926	6
2	334	215.259220844801	7
2	336	215.357485933947	6
2	340	218.137661835344	7
2	342	218.189992463676	6
2	346	219.367435533773	7
2	348	229.811466011543	6
2	352	230.492696257985	5
2	356	233.154581448755	6
2	358	234.562379262411	5
2	362	234.983933176585	6
2	364	241.741322957923	7
2	366	251.743692362958	6
2	370	253.951716774924	7
2	372	254.220512175446	6
2	376	255.549912154652	7
2	378	259.324723606516	6
2	382	259.370064448721	7
2	384	262.601672637579	6
2	388	262.905877403681	7
2	390	271.37735373798	6
2	394	275.978047096295	7
2	396	287.081914191573	6
2	400	288.418067471204	5
2	404	288.752538821353	6
2	406	289.079827275903	7
2	408	290.894042399847	6
2	412	293.829350912679	7
2	414	300.347195032574	6
2	418	303.414557526188	7
2	420	312.438084284946	6
2	424	313.385105916319	7
2	426	317.106923308672	6
2	430	317.524081221573	7
2	432	323.352665764362	6
2	436	325.272754180798	7
2	438	335.424012651336	6
2	442	336.909984227924	7
2	444	340.380596080127	6
2	448	341.274390711104	5
2	452	341.938581652156	6
2	454	342.689922079056	7
2	456	347.844962289923	6
2	460	348.881636395425	7
2	462	351.897499744156	6
2	466	354.312301956993	7
2	468	359.030650437696	6
2	472	359.464319716016	5
2	476	360.072826183517	4
2	480	360.566238936263	3
2	484	360.723253767511	4
2	486	362.209740984882	3
2	490	363.22805494702	4
2	492	363.246220566826	3
2	496	363.692486535804	4
2	498	363.954582282011	5
2	500	364.058441468304	6
2	502	365.060055500105	7
2	504	367.454424692706	6
2	508	369.558649442555	7
2	510	369.573014898158	6
2	514	370.001596837069	7
2	516	375.151858136188	6
2	520	375.199555090947	5
2	524	375.350160756019	4
2	528	375.48096186749	5
2	530	375.715780594286	6
2	532	376.044512806878	7
2	534	379.475348534093	6
2	538	380.245398568092	7
2	540	383.101399785707	6
2	544	384.175644398149	5
2	548	386.049750245469	6
2	550	387.193659233046	7
2	552	387.995095413223	6
2	556	389.971073498616	5
2	560	390.278985969642	6
2	562	393.959517715308	7
2	564	394.360421134181	6
2	568	397.199576477138	5
2	572	398.608897086163	6
2	574	398.749857317249	5
2	578	399.425305987431	6
2	580	400.67909446708	5
2	584	402.642257262501	4
2	588	403.652932592746	5
2	590	405.294375882839	6
2	592	407.031132843705	7
2	594	411.63953681952	6
2	598	414.839546777491	7
2	600	415.438645568265	6
2	604	416.467960332786	7
2	606	419.964820729422	6
2	610	420.532427650202	5
2	614	420.940936785038	6
2	616	421.439690229539	7
2	618	421.862703450293	6
2	622	421.974145551367	5
2	626	422.580566117637	6
2	628	423.161717808628	5
2	632	424.670752384391	4
2	636	425.054669960807	3
2	640	425.756163801977	4
2	642	425.913663399037	3
2	646	426.194294196631	4
2	648	426.210650403542	5
2	650	427.403582482803	4
2	654	427.668397772065	5
2	656	427.813540571389	6
2	658	430.269115030638	5
2	662	431.835156602857	6
2	664	432.063631858976	5
2	668	432.819493500959	6
2	670	434.533831975432	7
2	672	437.545870519213	6
2	676	439.821133001916	7
2	678	440.179620350689	6
2	682	443.525325989331	5
2	686	445.505725457152	6
2	688	446.305982408129	7
2	690	458.432327518339	6
2	694	459.047463033277	7
2	696	461.111389428361	6
2	700	462.285876066226	5
2	704	462.551835109827	6
2	706	463.285867117817	7
2	708	477.616089343328	6
2	712	478.304091650314	5
2	716	479.182368228479	6
2	718	481.261316489007	7
2	720	482.499884013803	6
2	724	482.527970811804	5
2	728	482.898268884718	4
2	732	483.036780244284	5
2	734	483.501232728315	6
2	736	485.106133221098	5
2	740	486.798671253167	6
2	742	488.464406819783	5
2	746	490.642901175959	6
2	748	492.636443685451	5
2	752	493.106118072743	4
2	756	493.676941530677	5
2	758	494.684254055989	4
2	762	495.843091337204	5
2	764	496.691402376165	6
2	766	508.758348057707	5
2	770	509.279924555686	6
2	772	509.298350761655	5
2	776	509.394872643477	4
2	780	510.542268914065	5
2	782	510.920208312799	6
2	784	511.470431094865	7
2	786	516.768743485758	6
2	790	517.664751375367	5
2	794	519.967839625465	4
2	798	520.1081986302	5
2	800	520.210716355829	6
2	802	521.069238044327	5
2	806	521.498153290205	4
2	810	521.747367482347	5
2	812	522.190912462152	4
2	816	522.370620868223	3
2	820	523.062582485271	4
2	822	523.573364765822	5
2	824	523.611939484601	4
2	828	526.446200081796	5
2	830	528.240770721725	6
2	832	530.612620823532	7
2	834	531.818624180109	6
2	838	532.566736962629	5
2	842	532.949339101143	4
2	846	533.084347754537	5
2	848	533.462699278773	6
2	850	534.361750868295	7
2	852	537.577606457099	6
2	856	537.598214588092	7
2	858	543.845290359729	6
2	862	545.290312570041	5
2	866	545.975257258921	6
2	868	546.767515261261	7
2	870	551.927689109872	6
2	874	552.132895592833	5
2	878	552.643596973623	6
2	880	553.141159040861	5
2	884	554.518469721456	6
2	886	557.035496398319	5
2	890	557.068973263933	6
2	892	559.856842293952	7
2	894	560.127653367453	6
2	898	564.452772343762	7
2	900	565.190732053981	6
2	904	569.639904690541	7
2	906	573.563086814361	6
2	910	574.456999225458	5
2	914	576.11454116335	6
2	916	576.402179714098	5
2	920	576.428325271612	6
2	922	578.341867308039	5
2	926	578.795036992187	6
2	928	586.42533038638	7
2	930	610.728104524157	6
2	934	611.449045871381	7
2	936	613.594300283237	6
2	940	614.709747555456	5
2	944	615.483803696855	6
2	946	617.546557223547	5
2	950	619.367471332537	4
2	954	619.66228478502	5
2	956	620.304409597533	6
2	958	620.968529764383	7
2	960	623.119751405518	6
2	964	624.501197960917	7
2	966	629.228880292956	6
2	970	632.049966932842	5
2	974	632.728196054681	6
2	976	634.631797128553	5
2	980	634.965401299112	6
2	982	637.722406654916	5
2	986	637.829090861821	4
2	990	637.988245666196	5
2	992	637.990996699446	6
2	994	639.30277435659	7
2	996	640.028110009131	6
2	1000	641.505252752395	7
2	1002	644.585092171648	6