version 3
run General-44-20221103-10:28:22-6760
attr configname General
attr datetime 20221103-10:28:22
attr datetimef 20221103-102822
attr experiment General
attr inifile block.ini
attr iterationvars "$0=4, $1=30"
attr iterationvarsd 4/30
attr iterationvarsf 4,30-
attr measurement "$0=4, $1=30"
attr network Block
attr processid 6760
attr repetition 4
attr replication #4
attr resultdir results
attr runnumber 44
attr seedset 44
config network Block
config repeat 5
config sim-time-limit 1000s
config warmup-period 100s
config **.alloca.resourceModuleName "\"risorse\""
config **.dealloca.resourceModuleName "\"risorse\""
config **.is.delay exponential(3s)
config **.servente.serviceTime exponential(4s)
config **.dealloca.resourceAmount 2
config **.alloca.resourceAmount 2
config **.risorse.amount 6
config **.sorgente.numJobs (30)
config **.result-recording-modes all

vector 0 Block.is delayedJobs:vector ETV
attr interpolationmode sample-hold
attr recordingmode vector
attr title "number of delayed jobs"
vector 1 Block.alloca queueLength:vector ETV
attr interpolationmode sample-hold
attr recordingmode vector
attr title "queue length"
vector 2 Block.servente queueLength:vector ETV
attr interpolationmode sample-hold
attr recordingmode vector
attr title "queue length"
vector 3 Block.servente queueingTime:vector ETV
attr interpolationmode none
attr recordingmode vector
attr title "queueing time at dequeue"
attr unit s
vector 4 Block.alloca queueingTime:vector ETV
attr interpolationmode none
attr recordingmode vector
attr title "queueing time at dequeue"
attr unit s
vector 5 Block.risorse amount:vector ETV
attr interpolationmode sample-hold
attr recordingmode vector
attr title "available resource"
0	235	100.106735353933	1
0	237	100.855075315434	0
0	242	102.790548783357	1
0	246	104.88896846827	2
0	247	105.114781184347	1
0	249	106.515527999029	0
0	254	106.884368708257	1
0	255	113.311169914621	0
0	260	121.883761527965	1
0	264	122.945431724846	2
0	265	125.768276140241	1
0	267	128.321301977019	0
0	272	129.477071183298	1
0	273	133.193081564505	0
0	278	133.409976473054	1
0	279	136.996303546003	0
0	284	138.790549193962	1
0	288	139.040572756561	2
0	292	139.37355826139	3
0	293	139.67292637533	2
0	298	140.222071625894	3
0	299	142.051228531467	2
0	301	145.443476302549	1
0	303	146.772738667807	0
0	308	147.119325051933	1
0	309	149.155422161285	0
0	314	160.173165823454	1
0	315	160.519309180668	0
0	320	163.931662007641	1
0	324	164.399894228751	2
0	325	164.43242829059	1
0	330	164.614210374392	2
0	331	165.56476104815	1
0	336	168.895199250352	2
0	337	175.718705286196	1
0	342	176.392682675745	2
0	343	176.859128295039	1
0	345	176.93090482069	0
0	350	185.356262612069	1
0	351	185.782191895887	0
0	356	201.236573752628	1
0	357	202.381907684779	0
0	362	204.919374667412	1
0	363	206.02138032954	0
0	368	209.468934946091	1
0	369	211.113765636543	0
0	374	211.390905632102	1
0	378	212.57801946524	2
0	379	212.596803087687	1
0	381	215.096531973261	0
0	386	215.767421379916	1
0	387	216.067826165062	0
0	392	224.462166300961	1
0	393	229.260294693455	0
0	398	230.666583606703	1
0	402	230.71439185463	2
0	403	231.605199135186	1
0	408	235.009373549167	2
0	409	237.985767033923	1
0	411	241.969909947358	0
0	416	243.416360157848	1
0	417	243.464314785325	0
0	422	244.251496968455	1
0	423	250.017420873117	0
0	428	255.137512644716	1
0	432	257.828350766215	2
0	433	257.943576420309	1
0	435	258.514903623921	0
0	440	262.059401756198	1
0	444	263.088144164353	2
0	445	263.168021657811	1
0	450	263.940799851305	2
0	451	265.580200436377	1
0	453	266.645579855498	0
0	458	271.347548826205	1
0	459	274.77348703807	0
0	464	275.915043923169	1
0	465	278.917583334044	0
0	470	282.082616579863	1
0	474	286.47728980119	2
0	478	288.616943913428	3
0	482	288.624870781735	4
0	483	288.970718173454	3
0	488	289.771193843981	4
0	489	290.458664918541	3
0	491	290.485458080585	2
0	496	290.72326063305	3
0	497	291.81268803252	2
0	499	292.714719764076	1
0	504	296.252390308751	2
0	505	296.307661691411	1
0	507	296.769868509105	0
0	512	302.755744107523	1
0	516	303.078854328182	2
0	517	303.361739130807	1
0	519	303.437502708945	0
0	524	310.422835293257	1
0	528	311.457491408063	2
0	529	311.606493608269	1
0	534	312.001359445987	2
0	535	314.077376309373	1
0	537	316.1808842964	0
0	542	317.783984424601	1
0	543	319.882022714751	0
0	548	321.509214067947	1
0	552	322.381369137266	2
0	553	323.662104622109	1
0	555	325.850242017497	0
0	560	326.118655158291	1
0	564	331.708132738792	2
0	565	332.774756290305	1
0	567	334.15787125389	0
0	572	339.478417257597	1
0	576	340.502072716711	2
0	577	340.679906692217	1
0	582	341.134797408167	2
0	583	341.881479702754	1
0	588	341.917054389241	2
0	589	343.848675528519	1
0	594	344.541566130437	2
0	595	345.007483880624	1
0	597	348.5965961091	0
0	602	356.601271328879	1
0	606	356.850444632862	2
0	607	356.913730578388	1
0	612	357.786277313346	2
0	613	358.118777118058	1
0	615	361.292615801214	0
0	620	364.034364178882	1
0	621	364.637637253622	0
0	626	370.086005864989	1
0	627	370.093639299703	0
0	632	372.033382154659	1
0	633	372.967479838503	0
0	638	378.987553358909	1
0	642	379.141291368843	2
0	646	379.341484744472	3
0	647	380.494393883794	2
0	649	380.769966185744	1
0	651	382.590760929482	0
0	656	388.706313153072	1
0	657	389.421825852752	0
0	662	393.643325740166	1
0	666	394.599150149359	2
0	667	394.769698870356	1
0	672	395.838729342394	2
0	673	395.987351989963	1
0	675	396.26370580856	0
0	680	396.77005948377	1
0	684	397.221907317332	2
0	685	399.360773850705	1
0	690	399.894354634225	2
0	691	400.163151180249	1
0	693	405.738038580072	0
0	698	407.436525788445	1
0	699	407.437617323361	0
0	704	407.663943091936	1
0	708	407.983941500043	2
0	712	410.988212152316	3
0	713	411.187079176594	2
0	715	412.194689821923	1
0	717	412.698853435118	0
0	722	415.578779222764	1
0	723	417.2652360847	0
0	728	421.454220982381	1
0	729	422.730571041783	0
0	734	427.906694550978	1
0	738	427.967112309529	2
0	739	429.952782037669	1
0	744	433.421618991356	2
0	745	433.436015307506	1
0	747	434.319993315278	0
0	752	436.300705434883	1
0	753	436.673742940786	0
0	758	454.054096717259	1
0	762	454.524744182183	2
0	763	455.825088020153	1
0	768	456.080303744994	2
0	769	456.926558224752	1
0	771	458.241598434157	0
0	776	464.648326211712	1
0	780	464.725264194575	2
0	781	465.999081192656	1
0	786	469.561687539891	2
0	787	471.122729358097	1
0	792	475.025199340229	2
0	793	476.564434297588	1
0	795	479.904859601767	0
0	800	480.541417736416	1
0	804	481.016968391873	2
0	805	481.953532367313	1
0	810	482.820357882688	2
0	811	483.93005996027	1
0	813	484.905312179039	0
0	818	485.672486753339	1
0	819	487.229644838181	0
0	824	487.826517294604	1
0	828	488.279150300092	2
0	829	489.633096591633	1
0	834	490.509125018353	2
0	835	491.735131751203	1
0	840	492.538150224404	2
0	841	494.390627346185	1
0	843	496.815409717173	0
0	848	498.767454218807	1
0	852	499.403894440998	2
0	856	500.205036354034	3
0	860	501.098712267464	4
0	861	501.339785341458	3
0	863	503.091932305617	2
0	865	505.099049776148	1
0	870	506.612564162137	2
0	871	507.005498510967	1
0	873	508.168114772046	0
0	878	510.946975577639	1
0	882	512.646644055199	2
0	883	514.537584817266	1
0	888	515.612230885774	2
0	889	516.849807243631	1
0	894	520.509938136338	2
0	898	520.885576414484	3
0	899	521.456756004304	2
0	901	522.295109094782	1
0	903	523.867054363035	0
0	908	526.543442647805	1
0	912	528.759604360333	2
0	913	529.097005711045	1
0	915	532.5576466281	0
0	920	537.293626862064	1
0	924	538.827035764805	2
0	928	539.825508235071	3
0	932	541.225538452762	4
0	933	541.813967218413	3
0	935	542.348039379556	2
0	937	543.493451448545	1
0	939	543.985132015861	0
0	944	544.231695149103	1
0	948	544.933831953169	2
0	952	545.426374857361	3
0	956	545.987455810017	4
0	957	546.906969723135	3
0	959	547.533160347302	2
0	961	547.797784972668	1
0	963	547.834233865918	0
0	968	549.030466731664	1
0	972	551.617830708873	2
0	973	551.897009396134	1
0	975	552.031825303304	0
0	980	554.23486142858	1
0	984	555.336363654842	2
0	985	556.905850660383	1
0	987	557.745658746734	0
0	992	562.996894704798	1
0	996	563.571425453899	2
0	997	565.000036637384	1
0	999	565.9630932285	0
0	1004	566.533458098685	1
0	1005	578.121767783769	0
0	1010	581.622223968345	1
0	1014	582.08939453598	2
0	1015	582.185231257818	1
0	1020	583.264787646493	2
0	1024	583.523948979653	3
0	1028	583.901481735576	4
0	1029	584.33871696044	3
0	1031	585.461940098612	2
0	1033	585.843866207761	1
0	1038	585.863419712854	2
0	1042	585.991592528871	3
0	1046	586.41466278094	4
0	1047	586.940429747015	3
0	1049	587.094208220882	2
0	1051	589.732284388248	1
0	1053	590.134122353092	0
0	1058	603.105601406734	1
0	1062	605.580437753526	2
0	1063	610.216468064375	1
0	1068	610.42666134165	2
0	1069	610.444362657709	1
0	1074	614.523450846273	2
0	1075	615.27712350375	1
0	1077	616.979952461879	0
0	1082	620.958532183022	1
0	1083	625.270941556417	0
0	1088	625.625779669194	1
0	1092	625.942107370725	2
0	1096	626.108921634763	3
0	1097	626.195801593848	2
0	1102	626.344261656493	3
0	1103	626.464303226757	2
0	1105	626.591072153725	1
0	1110	628.946140262776	2
0	1114	629.531337251842	3
0	1115	630.136065747906	2
0	1120	632.10784615513	3
0	1121	633.335994577157	2
0	1123	634.244069364016	1
0	1128	637.849071432526	2
0	1132	638.576347435003	3
0	1133	638.884983217392	2
0	1135	639.655981937132	1
0	1137	641.539296603456	0
0	1142	644.352376498095	1
0	1143	645.054224588569	0
0	1148	647.797711232014	1
0	1149	647.960818804717	0
0	1154	655.849306143581	1
0	1158	663.900162295043	2
0	1159	664.129159710631	1
0	1161	666.348513488967	0
0	1166	666.438235940154	1
0	1167	668.584096944077	0
0	1172	671.136901398847	1
0	1173	672.706948265804	0
0	1178	681.825507212158	1
0	1182	683.223895860525	2
0	1183	684.389922700779	1
0	1185	686.28040056392	0
0	1190	690.584203492706	1
0	1194	691.030603927661	2
0	1195	691.046299302314	1
0	1197	693.030126698831	0
0	1202	695.491373795957	1
0	1203	695.908933436219	0
0	1208	700.214372258261	1
0	1209	701.20618039794	0
0	1214	703.529123876968	1
0	1215	704.111079240838	0
0	1220	711.224564510094	1
0	1224	713.623937210566	2
0	1228	713.764084906246	3
0	1229	714.158919835427	2
0	1234	715.381501271076	3
0	1235	716.919435702163	2
0	1237	718.265081682216	1
0	1239	718.720266945907	0
0	1244	719.259444907536	1
0	1245	720.804014330252	0
0	1250	731.559371319502	1
0	1251	734.939579303203	0
0	1256	736.705414887183	1
0	1257	736.773095358244	0
0	1262	740.09061056775	1
0	1266	740.649535101517	2
0	1267	741.428357240975	1
0	1269	741.934293243584	0
0	1274	745.682537596154	1
0	1275	746.589041196915	0
0	1280	746.792173009731	1
0	1281	747.413538347916	0
0	1286	749.509797115152	1
0	1287	752.936221576172	0
0	1292	758.90899421971	1
0	1296	760.098046963121	2
0	1297	765.060702270261	1
0	1299	765.236356372973	0
0	1304	765.392516391803	1
0	1305	765.988259246281	0
0	1310	770.279359140565	1
0	1311	772.50353611461	0
0	1316	772.625741709593	1
0	1320	775.40132983924	2
0	1321	775.703778934123	1
0	1326	778.127592328933	2
0	1327	781.085285313727	1
0	1332	782.793338186176	2
0	1333	782.884372582254	1
0	1338	783.400043728404	2
0	1339	783.943400410913	1
0	1344	785.289939238748	2
0	1345	787.71884732082	1
0	1350	790.313419005557	2
0	1351	790.891971896989	1
0	1356	790.957874610075	2
0	1357	792.288047991944	1
0	1359	792.533703387556	0
0	1364	794.517706429033	1
0	1368	797.448522512003	2
0	1369	798.58922117852	1
0	1371	798.747572598593	0
0	1376	805.641038381076	1
0	1380	806.674703888737	2
0	1381	807.96789714163	1
0	1383	808.772970683553	0
0	1388	817.762055801313	1
0	1392	826.451827892177	2
0	1393	826.856650032437	1
0	1398	829.8023916455	2
0	1399	830.757366251229	1
0	1404	833.085237081304	2
0	1405	833.615447924721	1
0	1407	834.174914493695	0
0	1412	836.073128841607	1
0	1416	839.44781518145	2
0	1417	839.944999785207	1
0	1419	840.931278919463	0
0	1424	851.820891990954	1
0	1428	855.097034577637	2
0	1429	856.881640938176	1
0	1431	856.905370874761	0
0	1436	858.123235100348	1
0	1437	859.229479870435	0
0	1442	861.660658326713	1
0	1443	863.30574541485	0
0	1448	867.571011326691	1
0	1452	869.402510484685	2
0	1456	869.812163141131	3
0	1457	870.209118092122	2
0	1459	870.301983377454	1
0	1461	872.17745179327	0
0	1466	883.087075238993	1
0	1467	884.365211602242	0
0	1472	890.837536450436	1
0	1473	891.374563856968	0
0	1478	892.741159659052	1
0	1482	893.80775175692	2
0	1483	894.46878052946	1
0	1485	896.741373131719	0
0	1490	902.296434669708	1
0	1494	903.515371991022	2
0	1495	905.186405296625	1
0	1497	907.715803133139	0
0	1502	915.349075537439	1
0	1503	918.10432709278	0
0	1508	923.077241459373	1
0	1509	924.53249541211	0
0	1514	929.71990771203	1
0	1515	932.422781487318	0
0	1520	933.539758218934	1
0	1524	934.243819063097	2
0	1525	934.692296962929	1
0	1527	941.033783474727	0
0	1532	948.838035111339	1
0	1533	953.268801223581	0
0	1538	953.659534009355	1
0	1539	956.942298819955	0
0	1544	958.343487752139	1
0	1545	959.905214906632	0
0	1550	969.138744332795	1
0	1554	970.594157067925	2
0	1558	971.898636493508	3
0	1559	972.39969187531	2
0	1564	974.732234384449	3
0	1568	974.849567590672	4
0	1572	975.1028470982	5
0	1573	975.308968679085	4
0	1575	976.572775498461	3
0	1577	978.582586089819	2
0	1582	979.729204583425	3
0	1583	979.770395738381	2
0	1588	979.997167492945	3
0	1592	980.010650873468	4
0	1593	981.027604219118	3
0	1598	981.671958011064	4
0	1602	982.502341255325	5
0	1603	982.795597839484	4
0	1608	983.298301877922	5
0	1609	983.457093087276	4
0	1611	984.425608025957	3
0	1613	985.28436167054	2
0	1615	987.189395741867	1
0	1620	988.186780891243	2
0	1621	989.403345758979	1
0	1623	991.518819030194	0
0	1628	992.525800470013	1
0	1629	993.253215312342	0
0	1634	999.787734074628	1
1	236	100.106735353933	26
1	238	100.855075315434	27
1	240	102.790548783357	26
1	244	104.88896846827	25
1	248	105.114781184347	26
1	250	106.515527999029	27
1	252	106.884368708257	26
1	256	113.311169914621	27
1	258	121.883761527965	26
1	262	122.945431724846	25
1	266	125.768276140241	26
1	268	128.321301977019	27
1	270	129.477071183298	26
1	274	133.193081564505	27
1	276	133.409976473054	26
1	280	136.996303546003	27
1	282	138.790549193962	26
1	286	139.040572756561	25
1	290	139.37355826139	24
1	294	139.67292637533	25
1	296	140.222071625894	24
1	300	142.051228531467	25
1	302	145.443476302549	26
1	304	146.772738667807	27
1	306	147.119325051933	26
1	310	149.155422161285	27
1	312	160.173165823454	26
1	316	160.519309180668	27
1	318	163.931662007641	26
1	322	164.399894228751	25
1	326	164.43242829059	26
1	328	164.614210374392	25
1	332	165.56476104815	26
1	334	168.895199250352	25
1	338	175.718705286196	26
1	340	176.392682675745	25
1	344	176.859128295039	26
1	346	176.93090482069	27
1	348	185.356262612069	26
1	352	185.782191895887	27
1	354	201.236573752628	26
1	358	202.381907684779	27
1	360	204.919374667412	26
1	364	206.02138032954	27
1	366	209.468934946091	26
1	370	211.113765636543	27
1	372	211.390905632102	26
1	376	212.57801946524	25
1	380	212.596803087687	26
1	382	215.096531973261	27
1	384	215.767421379916	26
1	388	216.067826165062	27
1	390	224.462166300961	26
1	394	229.260294693455	27
1	396	230.666583606703	26
1	400	230.71439185463	25
1	404	231.605199135186	26
1	406	235.009373549167	25
1	410	237.985767033923	26
1	412	241.969909947358	27
1	414	243.416360157848	26
1	418	243.464314785325	27
1	420	244.251496968455	26
1	424	250.017420873117	27
1	426	255.137512644716	26
1	430	257.828350766215	25
1	434	257.943576420309	26
1	436	258.514903623921	27
1	438	262.059401756198	26
1	442	263.088144164353	25
1	446	263.168021657811	26
1	448	263.940799851305	25
1	452	265.580200436377	26
1	454	266.645579855498	27
1	456	271.347548826205	26
1	460	274.77348703807	27
1	462	275.915043923169	26
1	466	278.917583334044	27
1	468	282.082616579863	26
1	472	286.47728980119	25
1	476	288.616943913428	24
1	480	288.624870781735	23
1	484	288.970718173454	24
1	486	289.771193843981	23
1	490	290.458664918541	24
1	492	290.485458080585	25
1	494	290.72326063305	24
1	498	291.81268803252	25
1	500	292.714719764076	26
1	502	296.252390308751	25
1	506	296.307661691411	26
1	508	296.769868509105	27
1	510	302.755744107523	26
1	514	303.078854328182	25
1	518	303.361739130807	26
1	520	303.437502708945	27
1	522	310.422835293257	26
1	526	311.457491408063	25
1	530	311.606493608269	26
1	532	312.001359445987	25
1	536	314.077376309373	26
1	538	316.1808842964	27
1	540	317.783984424601	26
1	544	319.882022714751	27
1	546	321.509214067947	26
1	550	322.381369137266	25
1	554	323.662104622109	26
1	556	325.850242017497	27
1	558	326.118655158291	26
1	562	331.708132738792	25
1	566	332.774756290305	26
1	568	334.15787125389	27
1	570	339.478417257597	26
1	574	340.502072716711	25
1	578	340.679906692217	26
1	580	341.134797408167	25
1	584	341.881479702754	26
1	586	341.917054389241	25
1	590	343.848675528519	26
1	592	344.541566130437	25
1	596	345.007483880624	26
1	598	348.5965961091	27
1	600	356.601271328879	26
1	604	356.850444632862	25
1	608	356.913730578388	26
1	610	357.786277313346	25
1	614	358.118777118058	26
1	616	361.292615801214	27
1	618	364.034364178882	26
1	622	364.637637253622	27
1	624	370.086005864989	26
1	628	370.093639299703	27
1	630	372.033382154659	26
1	634	372.967479838503	27
1	636	378.987553358909	26
1	640	379.141291368843	25
1	644	379.341484744472	24
1	648	380.494393883794	25
1	650	380.769966185744	26
1	652	382.590760929482	27
1	654	388.706313153072	26
1	658	389.421825852752	27
1	660	393.643325740166	26
1	664	394.599150149359	25
1	668	394.769698870356	26
1	670	395.838729342394	25
1	674	395.987351989963	26
1	676	396.26370580856	27
1	678	396.77005948377	26
1	682	397.221907317332	25
1	686	399.360773850705	26
1	688	399.894354634225	25
1	692	400.163151180249	26
1	694	405.738038580072	27
1	696	407.436525788445	26
1	700	407.437617323361	27
1	702	407.663943091936	26
1	706	407.983941500043	25
1	710	410.988212152316	24
1	714	411.187079176594	25
1	716	412.194689821923	26
1	718	412.698853435118	27
1	720	415.578779222764	26
1	724	417.2652360847	27
1	726	421.454220982381	26
1	730	422.730571041783	27
1	732	427.906694550978	26
1	736	427.967112309529	25
1	740	429.952782037669	26
1	742	433.421618991356	25
1	746	433.436015307506	26
1	748	434.319993315278	27
1	750	436.300705434883	26
1	754	436.673742940786	27
1	756	454.054096717259	26
1	760	454.524744182183	25
1	764	455.825088020153	26
1	766	456.080303744994	25
1	770	456.926558224752	26
1	772	458.241598434157	27
1	774	464.648326211712	26
1	778	464.725264194575	25
1	782	465.999081192656	26
1	784	469.561687539891	25
1	788	471.122729358097	26
1	790	475.025199340229	25
1	794	476.564434297588	26
1	796	479.904859601767	27
1	798	480.541417736416	26
1	802	481.016968391873	25
1	806	481.953532367313	26
1	808	482.820357882688	25
1	812	483.93005996027	26
1	814	484.905312179039	27
1	816	485.672486753339	26
1	820	487.229644838181	27
1	822	487.826517294604	26
1	826	488.279150300092	25
1	830	489.633096591633	26
1	832	490.509125018353	25
1	836	491.735131751203	26
1	838	492.538150224404	25
1	842	494.390627346185	26
1	844	496.815409717173	27
1	846	498.767454218807	26
1	850	499.403894440998	25
1	854	500.205036354034	24
1	858	501.098712267464	23
1	862	501.339785341458	24
1	864	503.091932305617	25
1	866	505.099049776148	26
1	868	506.612564162137	25
1	872	507.005498510967	26
1	874	508.168114772046	27
1	876	510.946975577639	26
1	880	512.646644055199	25
1	884	514.537584817266	26
1	886	515.612230885774	25
1	890	516.849807243631	26
1	892	520.509938136338	25
1	896	520.885576414484	24
1	900	521.456756004304	25
1	902	522.295109094782	26
1	904	523.867054363035	27
1	906	526.543442647805	26
1	910	528.759604360333	25
1	914	529.097005711045	26
1	916	532.5576466281	27
1	918	537.293626862064	26
1	922	538.827035764805	25
1	926	539.825508235071	24
1	930	541.225538452762	23
1	934	541.813967218413	24
1	936	542.348039379556	25
1	938	543.493451448545	26
1	940	543.985132015861	27
1	942	544.231695149103	26
1	946	544.933831953169	25
1	950	545.426374857361	24
1	954	545.987455810017	23
1	958	546.906969723135	24
1	960	547.533160347302	25
1	962	547.797784972668	26
1	964	547.834233865918	27
1	966	549.030466731664	26
1	970	551.617830708873	25
1	974	551.897009396134	26
1	976	552.031825303304	27
1	978	554.23486142858	26
1	982	555.336363654842	25
1	986	556.905850660383	26
1	988	557.745658746734	27
1	990	562.996894704798	26
1	994	563.571425453899	25
1	998	565.000036637384	26
1	1000	565.9630932285	27
1	1002	566.533458098685	26
1	1006	578.121767783769	27
1	1008	581.622223968345	26
1	1012	582.08939453598	25
1	1016	582.185231257818	26
1	1018	583.264787646493	25
1	1022	583.523948979653	24
1	1026	583.901481735576	23
1	1030	584.33871696044	24
1	1032	585.461940098612	25
1	1034	585.843866207761	26
1	1036	585.863419712854	25
1	1040	585.991592528871	24
1	1044	586.41466278094	23
1	1048	586.940429747015	24
1	1050	587.094208220882	25
1	1052	589.732284388248	26
1	1054	590.134122353092	27
1	1056	603.105601406734	26
1	1060	605.580437753526	25
1	1064	610.216468064375	26
1	1066	610.42666134165	25
1	1070	610.444362657709	26
1	1072	614.523450846273	25
1	1076	615.27712350375	26
1	1078	616.979952461879	27
1	1080	620.958532183022	26
1	1084	625.270941556417	27
1	1086	625.625779669194	26
1	1090	625.942107370725	25
1	1094	626.108921634763	24
1	1098	626.195801593848	25
1	1100	626.344261656493	24
1	1104	626.464303226757	25
1	1106	626.591072153725	26
1	1108	628.946140262776	25
1	1112	629.531337251842	24
1	1116	630.136065747906	25
1	1118	632.10784615513	24
1	1122	633.335994577157	25
1	1124	634.244069364016	26
1	1126	637.849071432526	25
1	1130	638.576347435003	24
1	1134	638.884983217392	25
1	1136	639.655981937132	26
1	1138	641.539296603456	27
1	1140	644.352376498095	26
1	1144	645.054224588569	27
1	1146	647.797711232014	26
1	1150	647.960818804717	27
1	1152	655.849306143581	26
1	1156	663.900162295043	25
1	1160	664.129159710631	26
1	1162	666.348513488967	27
1	1164	666.438235940154	26
1	1168	668.584096944077	27
1	1170	671.136901398847	26
1	1174	672.706948265804	27
1	1176	681.825507212158	26
1	1180	683.223895860525	25
1	1184	684.389922700779	26
1	1186	686.28040056392	27
1	1188	690.584203492706	26
1	1192	691.030603927661	25
1	1196	691.046299302314	26
1	1198	693.030126698831	27
1	1200	695.491373795957	26
1	1204	695.908933436219	27
1	1206	700.214372258261	26
1	1210	701.20618039794	27
1	1212	703.529123876968	26
1	1216	704.111079240838	27
1	1218	711.224564510094	26
1	1222	713.623937210566	25
1	1226	713.764084906246	24
1	1230	714.158919835427	25
1	1232	715.381501271076	24
1	1236	716.919435702163	25
1	1238	718.265081682216	26
1	1240	718.720266945907	27
1	1242	719.259444907536	26
1	1246	720.804014330252	27
1	1248	731.559371319502	26
1	1252	734.939579303203	27
1	1254	736.705414887183	26
1	1258	736.773095358244	27
1	1260	740.09061056775	26
1	1264	740.649535101517	25
1	1268	741.428357240975	26
1	1270	741.934293243584	27
1	1272	745.682537596154	26
1	1276	746.589041196915	27
1	1278	746.792173009731	26
1	1282	747.413538347916	27
1	1284	749.509797115152	26
1	1288	752.936221576172	27
1	1290	758.90899421971	26
1	1294	760.098046963121	25
1	1298	765.060702270261	26
1	1300	765.236356372973	27
1	1302	765.392516391803	26
1	1306	765.988259246281	27
1	1308	770.279359140565	26
1	1312	772.50353611461	27
1	1314	772.625741709593	26
1	1318	775.40132983924	25
1	1322	775.703778934123	26
1	1324	778.127592328933	25
1	1328	781.085285313727	26
1	1330	782.793338186176	25
1	1334	782.884372582254	26
1	1336	783.400043728404	25
1	1340	783.943400410913	26
1	1342	785.289939238748	25
1	1346	787.71884732082	26
1	1348	790.313419005557	25
1	1352	790.891971896989	26
1	1354	790.957874610075	25
1	1358	792.288047991944	26
1	1360	792.533703387556	27
1	1362	794.517706429033	26
1	1366	797.448522512003	25
1	1370	798.58922117852	26
1	1372	798.747572598593	27
1	1374	805.641038381076	26
1	1378	806.674703888737	25
1	1382	807.96789714163	26
1	1384	808.772970683553	27
1	1386	817.762055801313	26
1	1390	826.451827892177	25
1	1394	826.856650032437	26
1	1396	829.8023916455	25
1	1400	830.757366251229	26
1	1402	833.085237081304	25
1	1406	833.615447924721	26
1	1408	834.174914493695	27
1	1410	836.073128841607	26
1	1414	839.44781518145	25
1	1418	839.944999785207	26
1	1420	840.931278919463	27
1	1422	851.820891990954	26
1	1426	855.097034577637	25
1	1430	856.881640938176	26
1	1432	856.905370874761	27
1	1434	858.123235100348	26
1	1438	859.229479870435	27
1	1440	861.660658326713	26
1	1444	863.30574541485	27
1	1446	867.571011326691	26
1	1450	869.402510484685	25
1	1454	869.812163141131	24
1	1458	870.209118092122	25
1	1460	870.301983377454	26
1	1462	872.17745179327	27
1	1464	883.087075238993	26
1	1468	884.365211602242	27
1	1470	890.837536450436	26
1	1474	891.374563856968	27
1	1476	892.741159659052	26
1	1480	893.80775175692	25
1	1484	894.46878052946	26
1	1486	896.741373131719	27
1	1488	902.296434669708	26
1	1492	903.515371991022	25
1	1496	905.186405296625	26
1	1498	907.715803133139	27
1	1500	915.349075537439	26
1	1504	918.10432709278	27
1	1506	923.077241459373	26
1	1510	924.53249541211	27
1	1512	929.71990771203	26
1	1516	932.422781487318	27
1	1518	933.539758218934	26
1	1522	934.243819063097	25
1	1526	934.692296962929	26
1	1528	941.033783474727	27
1	1530	948.838035111339	26
1	1534	953.268801223581	27
1	1536	953.659534009355	26
1	1540	956.942298819955	27
1	1542	958.343487752139	26
1	1546	959.905214906632	27
1	1548	969.138744332795	26
1	1552	970.594157067925	25
1	1556	971.898636493508	24
1	1560	972.39969187531	25
1	1562	974.732234384449	24
1	1566	974.849567590672	23
1	1570	975.1028470982	22
1	1574	975.308968679085	23
1	1576	976.572775498461	24
1	1578	978.582586089819	25
1	1580	979.729204583425	24
1	1584	979.770395738381	25
1	1586	979.997167492945	24
1	1590	980.010650873468	23
1	1594	981.027604219118	24
1	1596	981.671958011064	23
1	1600	982.502341255325	22
1	1604	982.795597839484	23
1	1606	983.298301877922	22
1	1610	983.457093087276	23
1	1612	984.425608025957	24
1	1614	985.28436167054	25
1	1616	987.189395741867	26
1	1618	988.186780891243	25
1	1622	989.403345758979	26
1	1624	991.518819030194	27
1	1626	992.525800470013	26
1	1630	993.253215312342	27
1	1632	999.787734074628	26
2	239	102.790548783357	1
2	241	102.790548783357	2
2	243	104.88896846827	1
2	245	104.88896846827	2
2	251	106.884368708257	1
2	253	106.884368708257	2
2	257	121.883761527965	1
2	259	121.883761527965	2
2	261	122.945431724846	1
2	263	122.945431724846	2
2	269	129.477071183298	1
2	271	129.477071183298	2
2	275	133.409976473054	1
2	277	133.409976473054	2
2	281	138.790549193962	1
2	283	138.790549193962	2
2	285	139.040572756561	1
2	287	139.040572756561	2
2	289	139.37355826139	1
2	291	139.37355826139	2
2	295	140.222071625894	1
2	297	140.222071625894	2
2	305	147.119325051933	1
2	307	147.119325051933	2
2	311	160.173165823454	1
2	313	160.173165823454	2
2	317	163.931662007641	1
2	319	163.931662007641	2
2	321	164.399894228751	1
2	323	164.399894228751	2
2	327	164.614210374392	1
2	329	164.614210374392	2
2	333	168.895199250352	1
2	335	168.895199250352	2
2	339	176.392682675745	1
2	341	176.392682675745	2
2	347	185.356262612069	1
2	349	185.356262612069	2
2	353	201.236573752628	1
2	355	201.236573752628	2
2	359	204.919374667412	1
2	361	204.919374667412	2
2	365	209.468934946091	1
2	367	209.468934946091	2
2	371	211.390905632102	1
2	373	211.390905632102	2
2	375	212.57801946524	1
2	377	212.57801946524	2
2	383	215.767421379916	1
2	385	215.767421379916	2
2	389	224.462166300961	1
2	391	224.462166300961	2
2	395	230.666583606703	1
2	397	230.666583606703	2
2	399	230.71439185463	1
2	401	230.71439185463	2
2	405	235.009373549167	1
2	407	235.009373549167	2
2	413	243.416360157848	1
2	415	243.416360157848	2
2	419	244.251496968455	1
2	421	244.251496968455	2
2	425	255.137512644716	1
2	427	255.137512644716	2
2	429	257.828350766215	1
2	431	257.828350766215	2
2	437	262.059401756198	1
2	439	262.059401756198	2
2	441	263.088144164353	1
2	443	263.088144164353	2
2	447	263.940799851305	1
2	449	263.940799851305	2
2	455	271.347548826205	1
2	457	271.347548826205	2
2	461	275.915043923169	1
2	463	275.915043923169	2
2	467	282.082616579863	1
2	469	282.082616579863	2
2	471	286.47728980119	1
2	473	286.47728980119	2
2	475	288.616943913428	1
2	477	288.616943913428	2
2	479	288.624870781735	1
2	481	288.624870781735	2
2	485	289.771193843981	1
2	487	289.771193843981	2
2	493	290.72326063305	1
2	495	290.72326063305	2
2	501	296.252390308751	1
2	503	296.252390308751	2
2	509	302.755744107523	1
2	511	302.755744107523	2
2	513	303.078854328182	1
2	515	303.078854328182	2
2	521	310.422835293257	1
2	523	310.422835293257	2
2	525	311.457491408063	1
2	527	311.457491408063	2
2	531	312.001359445987	1
2	533	312.001359445987	2
2	539	317.783984424601	1
2	541	317.783984424601	2
2	545	321.509214067947	1
2	547	321.509214067947	2
2	549	322.381369137266	1
2	551	322.381369137266	2
2	557	326.118655158291	1
2	559	326.118655158291	2
2	561	331.708132738792	1
2	563	331.708132738792	2
2	569	339.478417257597	1
2	571	339.478417257597	2
2	573	340.502072716711	1
2	575	340.502072716711	2
2	579	341.134797408167	1
2	581	341.134797408167	2
2	585	341.917054389241	1
2	587	341.917054389241	2
2	591	344.541566130437	1
2	593	344.541566130437	2
2	599	356.601271328879	1
2	601	356.601271328879	2
2	603	356.850444632862	1
2	605	356.850444632862	2
2	609	357.786277313346	1
2	611	357.786277313346	2
2	617	364.034364178882	1
2	619	364.034364178882	2
2	623	370.086005864989	1
2	625	370.086005864989	2
2	629	372.033382154659	1
2	631	372.033382154659	2
2	635	378.987553358909	1
2	637	378.987553358909	2
2	639	379.141291368843	1
2	641	379.141291368843	2
2	643	379.341484744472	1
2	645	379.341484744472	2
2	653	388.706313153072	1
2	655	388.706313153072	2
2	659	393.643325740166	1
2	661	393.643325740166	2
2	663	394.599150149359	1
2	665	394.599150149359	2
2	669	395.838729342394	1
2	671	395.838729342394	2
2	677	396.77005948377	1
2	679	396.77005948377	2
2	681	397.221907317332	1
2	683	397.221907317332	2
2	687	399.894354634225	1
2	689	399.894354634225	2
2	695	407.436525788445	1
2	697	407.436525788445	2
2	701	407.663943091936	1
2	703	407.663943091936	2
2	705	407.983941500043	1
2	707	407.983941500043	2
2	709	410.988212152316	1
2	711	410.988212152316	2
2	719	415.578779222764	1
2	721	415.578779222764	2
2	725	421.454220982381	1
2	727	421.454220982381	2
2	731	427.906694550978	1
2	733	427.906694550978	2
2	735	427.967112309529	1