version 3
run General-41-20221103-10:28:22-6760
attr configname General
attr datetime 20221103-10:28:22
attr datetimef 20221103-102822
attr experiment General
attr inifile block.ini
attr iterationvars "$0=4, $1=30"
attr iterationvarsd 4/30
attr iterationvarsf 4,30-
attr measurement "$0=4, $1=30"
attr network Block
attr processid 6760
attr repetition 1
attr replication #1
attr resultdir results
attr runnumber 41
attr seedset 41
config network Block
config repeat 5
config sim-time-limit 1000s
config warmup-period 100s
config **.alloca.resourceModuleName "\"risorse\""
config **.dealloca.resourceModuleName "\"risorse\""
config **.is.delay exponential(3s)
config **.servente.serviceTime exponential(4s)
config **.dealloca.resourceAmount 2
config **.alloca.resourceAmount 2
config **.risorse.amount 6
config **.sorgente.numJobs (30)
config **.result-recording-modes all

vector 0 Block.is delayedJobs:vector ETV
attr interpolationmode sample-hold
attr recordingmode vector
attr title "number of delayed jobs"
vector 1 Block.alloca queueLength:vector ETV
attr interpolationmode sample-hold
attr recordingmode vector
attr title "queue length"
vector 2 Block.servente queueLength:vector ETV
attr interpolationmode sample-hold
attr recordingmode vector
attr title "queue length"
vector 3 Block.servente queueingTime:vector ETV
attr interpolationmode none
attr recordingmode vector
attr title "queueing time at dequeue"
attr unit s
vector 4 Block.alloca queueingTime:vector ETV
attr interpolationmode none
attr recordingmode vector
attr title "queueing time at dequeue"
attr unit s
vector 5 Block.risorse amount:vector ETV
attr interpolationmode sample-hold
attr recordingmode vector
attr title "available resource"
0	265	100.527387023739	1
0	267	101.118751924576	0
0	272	104.409110873151	1
0	273	105.405740333837	0
0	278	107.592979176087	1
0	282	109.444733231063	2
0	286	109.670927511231	3
0	287	110.133071095188	2
0	289	112.843935963995	1
0	291	115.668017210326	0
0	296	116.150658557276	1
0	300	116.510880762293	2
0	301	117.136470071211	1
0	306	118.653241402249	2
0	307	118.745270662121	1
0	312	122.743720884863	2
0	316	123.871947969211	3
0	317	125.511076981387	2
0	319	125.586846710534	1
0	324	125.727906434228	2
0	325	126.724250318541	1
0	327	127.40292504811	0
0	332	131.486736008662	1
0	336	132.212262797614	2
0	337	132.457731210223	1
0	339	132.722091769618	0
0	344	136.091492635551	1
0	348	138.598412792555	2
0	352	139.341785646945	3
0	353	139.361536408612	2
0	358	142.372807925835	3
0	359	142.772503104697	2
0	361	147.182461307415	1
0	363	148.335753051306	0
0	368	148.528234692071	1
0	372	149.684604168987	2
0	376	153.804034543651	3
0	380	154.128344944477	4
0	381	154.2107577678	3
0	386	154.736850263656	4
0	387	154.752329010706	3
0	389	155.56390423787	2
0	391	155.80271631739	1
0	396	157.337979454872	2
0	397	158.267054244837	1
0	399	159.115459006239	0
0	404	159.901198395686	1
0	405	161.33632893188	0
0	410	161.549611645856	1
0	411	163.507076982239	0
0	416	164.983971320288	1
0	417	166.14722602159	0
0	422	171.898145518715	1
0	423	173.621872514768	0
0	428	177.80194652779	1
0	432	178.352857528031	2
0	436	178.919810361774	3
0	437	179.85375365386	2
0	439	180.253110265761	1
0	441	181.509929562856	0
0	446	181.75525362223	1
0	447	183.180275311446	0
0	452	187.181096613134	1
0	453	187.864422006831	0
0	458	201.034373164026	1
0	459	202.39308671562	0
0	464	205.574735940546	1
0	465	209.217035034756	0
0	470	211.612070549058	1
0	471	215.621923068524	0
0	476	217.046614556377	1
0	477	220.4892643875	0
0	482	222.908151802135	1
0	483	223.224930037863	0
0	488	223.898770229736	1
0	489	224.525183770961	0
0	494	226.064995589512	1
0	495	228.235819357302	0
0	500	231.686494373559	1
0	501	237.48776338125	0
0	506	239.49082470965	1
0	507	239.590286691001	0
0	512	255.095121723206	1
0	513	255.734916963688	0
0	518	257.179846730506	1
0	519	262.488136110963	0
0	524	268.110011149102	1
0	528	271.97950411983	2
0	532	272.340686974439	3
0	533	272.476812751374	2
0	538	274.119809701576	3
0	539	274.222870375728	2
0	541	275.83219125976	1
0	546	276.387560796739	2
0	550	276.981562217437	3
0	551	278.421908510367	2
0	553	278.964659249846	1
0	555	279.544268744533	0
0	560	279.833409145118	1
0	564	280.188713487327	2
0	565	280.314482677542	1
0	570	281.279730743341	2
0	571	282.670425950633	1
0	576	283.228673765699	2
0	577	283.552479231458	1
0	582	285.73914894099	2
0	583	286.136546230294	1
0	588	288.058524498587	2
0	589	288.240547903055	1
0	594	289.118098448684	2
0	595	289.72024739684	1
0	597	290.341978753139	0
0	602	291.161712853666	1
0	603	294.269220398105	0
0	608	295.99203323166	1
0	609	297.297669002338	0
0	614	297.61045106199	1
0	618	297.833316277556	2
0	619	298.957011770539	1
0	621	299.001166264223	0
0	626	299.46785629025	1
0	630	299.980731859484	2
0	631	300.027239712765	1
0	633	301.225374218115	0
0	638	304.290564656272	1
0	642	306.325590645629	2
0	643	306.774127926916	1
0	648	307.653388553351	2
0	652	308.414168738381	3
0	656	309.452034580936	4
0	657	309.674730551143	3
0	659	309.94873389793	2
0	661	312.617778222084	1
0	663	313.735942750492	0
0	668	317.42272834117	1
0	672	317.802337473153	2
0	673	318.628834098585	1
0	675	318.663184431648	0
0	680	324.450776240915	1
0	684	327.440333175328	2
0	685	327.591592893222	1
0	687	329.025098229185	0
0	692	329.099548922586	1
0	693	329.366129612972	0
0	698	330.990886450403	1
0	702	333.339492720347	2
0	703	333.639260507083	1
0	705	334.335166350131	0
0	710	335.158467321137	1
0	711	335.915255054679	0
0	716	337.640995414826	1
0	717	338.262497027742	0
0	722	352.432941190123	1
0	726	352.961998065202	2
0	727	353.259999893416	1
0	732	364.64071136506	2
0	733	364.677744323226	1
0	735	366.21796535306	0
0	740	367.689828322967	1
0	741	368.117711745609	0
0	746	368.562735423579	1
0	747	368.699099382331	0
0	752	381.727697894749	1
0	756	382.669058536694	2
0	757	385.431809865629	1
0	759	388.501402704903	0
0	764	392.003369772999	1
0	768	394.26025319712	2
0	772	395.203552270274	3
0	773	396.460303260936	2
0	778	396.867080953897	3
0	779	397.156652339871	2
0	781	398.537411126859	1
0	783	398.556868415305	0
0	788	400.327431361265	1
0	789	403.306963227149	0
0	794	409.6557544351	1
0	798	417.191410570093	2
0	799	417.543521986779	1
0	801	418.312362490021	0
0	806	426.527549445204	1
0	807	427.014327971076	0
0	812	429.720360820492	1
0	816	432.278506183476	2
0	817	432.322624496284	1
0	819	432.473953625693	0
0	824	440.092957797912	1
0	825	442.557035650872	0
0	830	443.556085473372	1
0	831	443.654157336921	0
0	836	445.552809536946	1
0	837	446.418628532994	0
0	842	447.96389367836	1
0	843	448.991299193777	0
0	848	451.077310994983	1
0	849	451.258249333941	0
0	854	458.243025290369	1
0	855	459.601362006913	0
0	860	461.584469173647	1
0	861	463.259660483634	0
0	866	474.850043204291	1
0	867	475.640265605831	0
0	872	475.687730736853	1
0	876	477.810704533432	2
0	877	481.855343177759	1
0	882	483.154752189833	2
0	883	484.914446374259	1
0	885	485.990485378265	0
0	890	495.110670045076	1
0	894	495.91828328182	2
0	895	496.647899650461	1
0	897	497.177204347581	0
0	902	497.945164106089	1
0	903	501.785499608511	0
0	908	502.723880311612	1
0	909	508.244211787635	0
0	914	509.120112844825	1
0	915	509.215463312682	0
0	920	513.897452202221	1
0	924	516.599605068984	2
0	925	516.843815763626	1
0	927	523.25129386148	0
0	932	526.90631352161	1
0	933	527.517130207851	0
0	938	528.868944334725	1
0	939	529.094627053197	0
0	944	531.966220689032	1
0	948	532.127675157212	2
0	952	533.888821483317	3
0	953	534.381997622493	2
0	955	536.709955598247	1
0	960	536.904918098406	2
0	964	538.556110519085	3
0	965	538.601320625121	2
0	967	540.424291134349	1
0	972	541.455671092629	2
0	976	541.729090408863	3
0	977	542.114091110449	2
0	979	542.452839024705	1
0	981	544.401887255047	0
0	986	544.812387534454	1
0	990	546.559927069424	2
0	991	546.609944388254	1
0	993	548.829399617774	0
0	998	552.362952421112	1
0	999	552.372925168138	0
0	1004	554.272036051012	1
0	1008	556.400637537921	2
0	1009	558.922650705132	1
0	1014	562.513966477042	2
0	1015	562.821786854782	1
0	1017	567.565638089809	0
0	1022	567.802266224702	1
0	1023	568.078291831552	0
0	1028	569.667575392757	1
0	1029	571.198734397539	0
0	1034	576.632578613098	1
0	1035	579.127461483428	0
0	1040	582.932171911659	1
0	1044	584.535220035634	2
0	1045	585.990722895945	1
0	1050	591.099641418679	2
0	1054	591.673051702449	3
0	1058	591.800514710865	4
0	1059	591.962137174982	3
0	1061	593.703178490905	2
0	1063	593.91981040276	1
0	1065	595.379591211098	0
0	1070	605.080912399764	1
0	1071	608.995872599971	0
0	1076	616.381086336837	1
0	1080	617.862807886112	2
0	1081	621.913488871853	1
0	1083	622.090268782223	0
0	1088	622.186831005813	1
0	1092	623.485715541488	2
0	1093	623.957445855706	1
0	1095	625.815233390159	0
0	1100	627.155011760713	1
0	1101	629.189563568712	0
0	1106	629.468525424995	1
0	1110	629.775152580907	2
0	1114	630.106753004576	3
0	1115	630.725690045197	2
0	1117	630.784242948572	1
0	1122	632.228082505624	2
0	1126	635.027494416922	3
0	1127	635.890974171114	2
0	1132	636.160285517331	3
0	1133	636.704825714955	2
0	1135	638.735428283228	1
0	1137	641.619521699535	0
0	1142	641.962121984337	1
0	1146	642.083235870008	2
0	1147	643.690991964621	1
0	1149	650.607267495073	0
0	1154	654.389981232787	1
0	1158	654.832831992853	2
0	1159	654.913738376264	1
0	1161	657.629156700343	0
0	1166	663.051163694443	1
0	1167	663.490545258408	0
0	1172	669.06460922968	1
0	1173	675.897244571379	0
0	1178	685.869853710126	1
0	1179	686.887324565578	0
0	1184	694.77299068404	1
0	1188	695.465000593866	2
0	1189	695.473117039161	1
0	1191	699.440802789719	0
0	1196	700.082091570871	1
0	1200	700.908639543252	2
0	1201	701.233721461489	1
0	1203	706.615215802677	0
0	1208	722.729689975754	1
0	1209	723.550530517288	0
0	1214	729.099985551923	1
0	1215	729.848274867541	0
0	1220	731.819629496466	1
0	1221	734.208299463322	0
0	1226	738.900843311762	1
0	1230	741.519763447461	2
0	1231	742.440862054085	1
0	1233	742.596798651014	0
0	1238	752.791964952299	1
0	1239	752.862466504631	0
0	1244	758.955046444988	1
0	1248	763.075270186276	2
0	1252	763.567296742987	3
0	1256	765.051498359545	4
0	1260	765.211734815826	5
0	1261	765.355979554621	4
0	1263	766.332704527178	3
0	1265	766.455259455635	2
0	1267	770.331840999793	1
0	1272	772.850707247911	2
0	1273	774.990063289427	1
0	1278	775.04705283101	2
0	1279	776.98238254273	1
0	1284	778.268894427904	2
0	1285	778.427485431564	1
0	1287	781.568178162861	0
0	1292	786.351501399793	1
0	1293	786.714502734916	0
0	1298	789.016984791006	1
0	1302	789.729131125451	2
0	1306	789.988257088413	3
0	1307	791.24722067704	2
0	1309	794.274175363636	1
0	1311	794.36193420887	0
0	1316	806.118838240217	1
0	1320	810.322145696089	2
0	1324	811.445689380625	3
0	1325	811.707223004995	2
0	1327	812.841956633851	1
0	1329	813.491672032871	0
0	1334	817.389436887229	1
0	1335	817.452164004049	0
0	1340	818.65372438235	1
0	1344	821.903299353	2
0	1348	825.536210853683	3
0	1349	826.254291732798	2
0	1354	826.266491138641	3
0	1355	826.343752574038	2
0	1357	827.016789665714	1
0	1359	828.051699341725	0
0	1364	837.778599344551	1
0	1365	845.013594331085	0
0	1370	851.396454118188	1
0	1371	852.157124066394	0
0	1376	852.836282258092	1
0	1380	853.724552139372	2
0	1381	854.168427390437	1
0	1386	854.352097076137	2
0	1387	856.540069277841	1
0	1389	860.052954394739	0
0	1394	860.136180961023	1
0	1395	862.492661581705	0
0	1400	865.480177944323	1
0	1404	872.315775904019	2
0	1405	872.410973033185	1
0	1407	874.381043654338	0
0	1412	874.513354232465	1
0	1416	875.745875090513	2
0	1417	879.148253098274	1
0	1419	879.974993505965	0
0	1424	890.11945553921	1
0	1425	890.497157179262	0
0	1430	893.44832765572	1
0	1434	894.124519076472	2
0	1435	894.64368317815	1
0	1437	895.310241597373	0
0	1442	899.184536616626	1
0	1443	900.289893527777	0
0	1448	904.094306904367	1
0	1449	906.030975578282	0
0	1454	911.043845541078	1
0	1455	913.204577647416	0
0	1460	914.738120955681	1
0	1461	917.086301203004	0
0	1466	919.803213404633	1
0	1467	920.842861380164	0
0	1472	933.521497074205	1
0	1476	934.114786605117	2
0	1477	938.017502092292	1
0	1482	938.432740220083	2
0	1483	940.995958022155	1
0	1485	942.196005227893	0
0	1490	942.38820389727	1
0	1494	943.792965810236	2
0	1495	944.688010372526	1
0	1497	945.204692500707	0
0	1502	948.930542640213	1
0	1503	950.478373249562	0
0	1508	954.218351951555	1
0	1509	954.271824248232	0
0	1514	956.024694504317	1
0	1515	956.623681798228	0
0	1520	957.065439453324	1
0	1524	962.009142798847	2
0	1528	962.462745126433	3
0	1529	962.628702355476	2
0	1531	965.377178440812	1
0	1536	965.432848797998	2
0	1537	968.878774710579	1
0	1539	968.897885914317	0
0	1544	971.278212130007	1
0	1545	975.252202571061	0
0	1550	978.883834777596	1
0	1551	979.725100815831	0
0	1556	980.087003215499	1
0	1560	984.273876918557	2
0	1561	984.497780129968	1
0	1563	984.841163214382	0
0	1568	987.323135974018	1
0	1572	988.79079575912	2
0	1573	989.390782638921	1
0	1575	989.412442022703	0
0	1580	991.248457420646	1
0	1581	997.142426870002	0
1	266	100.527387023739	26
1	268	101.118751924576	27
1	270	104.409110873151	26
1	274	105.405740333837	27
1	276	107.592979176087	26
1	280	109.444733231063	25
1	284	109.670927511231	24
1	288	110.133071095188	25
1	290	112.843935963995	26
1	292	115.668017210326	27
1	294	116.150658557276	26
1	298	116.510880762293	25
1	302	117.136470071211	26
1	304	118.653241402249	25
1	308	118.745270662121	26
1	310	122.743720884863	25
1	314	123.871947969211	24
1	318	125.511076981387	25
1	320	125.586846710534	26
1	322	125.727906434228	25
1	326	126.724250318541	26
1	328	127.40292504811	27
1	330	131.486736008662	26
1	334	132.212262797614	25
1	338	132.457731210223	26
1	340	132.722091769618	27
1	342	136.091492635551	26
1	346	138.598412792555	25
1	350	139.341785646945	24
1	354	139.361536408612	25
1	356	142.372807925835	24
1	360	142.772503104697	25
1	362	147.182461307415	26
1	364	148.335753051306	27
1	366	148.528234692071	26
1	370	149.684604168987	25
1	374	153.804034543651	24
1	378	154.128344944477	23
1	382	154.2107577678	24
1	384	154.736850263656	23
1	388	154.752329010706	24
1	390	155.56390423787	25
1	392	155.80271631739	26
1	394	157.337979454872	25
1	398	158.267054244837	26
1	400	159.115459006239	27
1	402	159.901198395686	26
1	406	161.33632893188	27
1	408	161.549611645856	26
1	412	163.507076982239	27
1	414	164.983971320288	26
1	418	166.14722602159	27
1	420	171.898145518715	26
1	424	173.621872514768	27
1	426	177.80194652779	26
1	430	178.352857528031	25
1	434	178.919810361774	24
1	438	179.85375365386	25
1	440	180.253110265761	26
1	442	181.509929562856	27
1	444	181.75525362223	26
1	448	183.180275311446	27
1	450	187.181096613134	26
1	454	187.864422006831	27
1	456	201.034373164026	26
1	460	202.39308671562	27
1	462	205.574735940546	26
1	466	209.217035034756	27
1	468	211.612070549058	26
1	472	215.621923068524	27
1	474	217.046614556377	26
1	478	220.4892643875	27
1	480	222.908151802135	26
1	484	223.224930037863	27
1	486	223.898770229736	26
1	490	224.525183770961	27
1	492	226.064995589512	26
1	496	228.235819357302	27
1	498	231.686494373559	26
1	502	237.48776338125	27
1	504	239.49082470965	26
1	508	239.590286691001	27
1	510	255.095121723206	26
1	514	255.734916963688	27
1	516	257.179846730506	26
1	520	262.488136110963	27
1	522	268.110011149102	26
1	526	271.97950411983	25
1	530	272.340686974439	24
1	534	272.476812751374	25
1	536	274.119809701576	24
1	540	274.222870375728	25
1	542	275.83219125976	26
1	544	276.387560796739	25
1	548	276.981562217437	24
1	552	278.421908510367	25
1	554	278.964659249846	26
1	556	279.544268744533	27
1	558	279.833409145118	26
1	562	280.188713487327	25
1	566	280.314482677542	26
1	568	281.279730743341	25
1	572	282.670425950633	26
1	574	283.228673765699	25
1	578	283.552479231458	26
1	580	285.73914894099	25
1	584	286.136546230294	26
1	586	288.058524498587	25
1	590	288.240547903055	26
1	592	289.118098448684	25
1	596	289.72024739684	26
1	598	290.341978753139	27
1	600	291.161712853666	26
1	604	294.269220398105	27
1	606	295.99203323166	26
1	610	297.297669002338	27
1	612	297.61045106199	26
1	616	297.833316277556	25
1	620	298.957011770539	26
1	622	299.001166264223	27
1	624	299.46785629025	26
1	628	299.980731859484	25
1	632	300.027239712765	26
1	634	301.225374218115	27
1	636	304.290564656272	26
1	640	306.325590645629	25
1	644	306.774127926916	26
1	646	307.653388553351	25
1	650	308.414168738381	24
1	654	309.452034580936	23
1	658	309.674730551143	24
1	660	309.94873389793	25
1	662	312.617778222084	26
1	664	313.735942750492	27
1	666	317.42272834117	26
1	670	317.802337473153	25
1	674	318.628834098585	26
1	676	318.663184431648	27
1	678	324.450776240915	26
1	682	327.440333175328	25
1	686	327.591592893222	26
1	688	329.025098229185	27
1	690	329.099548922586	26
1	694	329.366129612972	27
1	696	330.990886450403	26
1	700	333.339492720347	25
1	704	333.639260507083	26
1	706	334.335166350131	27
1	708	335.158467321137	26
1	712	335.915255054679	27
1	714	337.640995414826	26
1	718	338.262497027742	27
1	720	352.432941190123	26
1	724	352.961998065202	25
1	728	353.259999893416	26
1	730	364.64071136506	25
1	734	364.677744323226	26
1	736	366.21796535306	27
1	738	367.689828322967	26
1	742	368.117711745609	27
1	744	368.562735423579	26
1	748	368.699099382331	27
1	750	381.727697894749	26
1	754	382.669058536694	25
1	758	385.431809865629	26
1	760	388.501402704903	27
1	762	392.003369772999	26
1	766	394.26025319712	25
1	770	395.203552270274	24
1	774	396.460303260936	25
1	776	396.867080953897	24
1	780	397.156652339871	25
1	782	398.537411126859	26
1	784	398.556868415305	27
1	786	400.327431361265	26
1	790	403.306963227149	27
1	792	409.6557544351	26
1	796	417.191410570093	25
1	800	417.543521986779	26
1	802	418.312362490021	27
1	804	426.527549445204	26
1	808	427.014327971076	27
1	810	429.720360820492	26
1	814	432.278506183476	25
1	818	432.322624496284	26
1	820	432.473953625693	27
1	822	440.092957797912	26
1	826	442.557035650872	27
1	828	443.556085473372	26
1	832	443.654157336921	27
1	834	445.552809536946	26
1	838	446.418628532994	27
1	840	447.96389367836	26
1	844	448.991299193777	27
1	846	451.077310994983	26
1	850	451.258249333941	27
1	852	458.243025290369	26
1	856	459.601362006913	27
1	858	461.584469173647	26
1	862	463.259660483634	27
1	864	474.850043204291	26
1	868	475.640265605831	27
1	870	475.687730736853	26
1	874	477.810704533432	25
1	878	481.855343177759	26
1	880	483.154752189833	25
1	884	484.914446374259	26
1	886	485.990485378265	27
1	888	495.110670045076	26
1	892	495.91828328182	25
1	896	496.647899650461	26
1	898	497.177204347581	27
1	900	497.945164106089	26
1	904	501.785499608511	27
1	906	502.723880311612	26
1	910	508.244211787635	27
1	912	509.120112844825	26
1	916	509.215463312682	27
1	918	513.897452202221	26
1	922	516.599605068984	25
1	926	516.843815763626	26
1	928	523.25129386148	27
1	930	526.90631352161	26
1	934	527.517130207851	27
1	936	528.868944334725	26
1	940	529.094627053197	27
1	942	531.966220689032	26
1	946	532.127675157212	25
1	950	533.888821483317	24
1	954	534.381997622493	25
1	956	536.709955598247	26
1	958	536.904918098406	25
1	962	538.556110519085	24
1	966	538.601320625121	25
1	968	540.424291134349	26
1	970	541.455671092629	25
1	974	541.729090408863	24
1	978	542.114091110449	25
1	980	542.452839024705	26
1	982	544.401887255047	27
1	984	544.812387534454	26
1	988	546.559927069424	25
1	992	546.609944388254	26
1	994	548.829399617774	27
1	996	552.362952421112	26
1	1000	552.372925168138	27
1	1002	554.272036051012	26
1	1006	556.400637537921	25
1	1010	558.922650705132	26
1	1012	562.513966477042	25
1	1016	562.821786854782	26
1	1018	567.565638089809	27
1	1020	567.802266224702	26
1	1024	568.078291831552	27
1	1026	569.667575392757	26
1	1030	571.198734397539	27
1	1032	576.632578613098	26
1	1036	579.127461483428	27
1	1038	582.932171911659	26
1	1042	584.535220035634	25
1	1046	585.990722895945	26
1	1048	591.099641418679	25
1	1052	591.673051702449	24
1	1056	591.800514710865	23
1	1060	591.962137174982	24
1	1062	593.703178490905	25
1	1064	593.91981040276	26
1	1066	595.379591211098	27
1	1068	605.080912399764	26
1	1072	608.995872599971	27
1	1074	616.381086336837	26
1	1078	617.862807886112	25
1	1082	621.913488871853	26
1	1084	622.090268782223	27
1	1086	622.186831005813	26
1	1090	623.485715541488	25
1	1094	623.957445855706	26
1	1096	625.815233390159	27
1	1098	627.155011760713	26
1	1102	629.189563568712	27
1	1104	629.468525424995	26
1	1108	629.775152580907	25
1	1112	630.106753004576	24
1	1116	630.725690045197	25
1	1118	630.784242948572	26
1	1120	632.228082505624	25
1	1124	635.027494416922	24
1	1128	635.890974171114	25
1	1130	636.160285517331	24
1	1134	636.704825714955	25
1	1136	638.735428283228	26
1	1138	641.619521699535	27
1	1140	641.962121984337	26
1	1144	642.083235870008	25
1	1148	643.690991964621	26
1	1150	650.607267495073	27
1	1152	654.389981232787	26
1	1156	654.832831992853	25
1	1160	654.913738376264	26
1	1162	657.629156700343	27
1	1164	663.051163694443	26
1	1168	663.490545258408	27
1	1170	669.06460922968	26
1	1174	675.897244571379	27
1	1176	685.869853710126	26
1	1180	686.887324565578	27
1	1182	694.77299068404	26
1	1186	695.465000593866	25
1	1190	695.473117039161	26
1	1192	699.440802789719	27
1	1194	700.082091570871	26
1	1198	700.908639543252	25
1	1202	701.233721461489	26
1	1204	706.615215802677	27
1	1206	722.729689975754	26
1	1210	723.550530517288	27
1	1212	729.099985551923	26
1	1216	729.848274867541	27
1	1218	731.819629496466	26
1	1222	734.208299463322	27
1	1224	738.900843311762	26
1	1228	741.519763447461	25
1	1232	742.440862054085	26
1	1234	742.596798651014	27
1	1236	752.791964952299	26
1	1240	752.862466504631	27
1	1242	758.955046444988	26
1	1246	763.075270186276	25
1	1250	763.567296742987	24
1	1254	765.051498359545	23
1	1258	765.211734815826	22
1	1262	765.355979554621	23
1	1264	766.332704527178	24
1	1266	766.455259455635	25
1	1268	770.331840999793	26
1	1270	772.850707247911	25
1	1274	774.990063289427	26
1	1276	775.04705283101	25
1	1280	776.98238254273	26
1	1282	778.268894427904	25
1	1286	778.427485431564	26
1	1288	781.568178162861	27
1	1290	786.351501399793	26
1	1294	786.714502734916	27
1	1296	789.016984791006	26
1	1300	789.729131125451	25
1	1304	789.988257088413	24
1	1308	791.24722067704	25
1	1310	794.274175363636	26
1	1312	794.36193420887	27
1	1314	806.118838240217	26
1	1318	810.322145696089	25
1	1322	811.445689380625	24
1	1326	811.707223004995	25
1	1328	812.841956633851	26
1	1330	813.491672032871	27
1	1332	817.389436887229	26
1	1336	817.452164004049	27
1	1338	818.65372438235	26
1	1342	821.903299353	25
1	1346	825.536210853683	24
1	1350	826.254291732798	25
1	1352	826.266491138641	24
1	1356	826.343752574038	25
1	1358	827.016789665714	26
1	1360	828.051699341725	27
1	1362	837.778599344551	26
1	1366	845.013594331085	27
1	1368	851.396454118188	26
1	1372	852.157124066394	27
1	1374	852.836282258092	26
1	1378	853.724552139372	25
1	1382	854.168427390437	26
1	1384	854.352097076137	25
1	1388	856.540069277841	26
1	1390	860.052954394739	27
1	1392	860.136180961023	26
1	1396	862.492661581705	27
1	1398	865.480177944323	26
1	1402	872.315775904019	25
1	1406	872.410973033185	26
1	1408	874.381043654338	27
1	1410	874.513354232465	26
1	1414	875.745875090513	25
1	1418	879.148253098274	26
1	1420	879.974993505965	27
1	1422	890.11945553921	26
1	1426	890.497157179262	27
1	1428	893.44832765572	26
1	1432	894.124519076472	25
1	1436	894.64368317815	26
1	1438	895.310241597373	27
1	1440	899.184536616626	26
1	1444	900.289893527777	27
1	1446	904.094306904367	26
1	1450	906.030975578282	27
1	1452	911.043845541078	26
1	1456	913.204577647416	27
1	1458	914.738120955681	26
1	1462	917.086301203004	27
1	1464	919.803213404633	26
1	1468	920.842861380164	27
1	1470	933.521497074205	26
1	1474	934.114786605117	25
1	1478	938.017502092292	26
1	1480	938.432740220083	25
1	1484	940.995958022155	26
1	1486	942.196005227893	27
1	1488	942.38820389727	26
1	1492	943.792965810236	25
1	1496	944.688010372526	26
1	1498	945.204692500707	27
1	1500	948.930542640213	26
1	1504	950.478373249562	27
1	1506	954.218351951555	26
1	1510	954.271824248232	27
1	1512	956.024694504317	26
1	1516	956.623681798228	27
1	1518	957.065439453324	26
1	1522	962.009142798847	25
1	1526	962.462745126433	24
1	1530	962.628702355476	25
1	1532	965.377178440812	26
1	1534	965.432848797998	25
1	1538	968.878774710579	26
1	1540	968.897885914317	27
1	1542	971.278212130007	26
1	1546	975.252202571061	27
1	1548	978.883834777596	26
1	1552	979.725100815831	27
1	1554	980.087003215499	26
1	1558	984.273876918557	25
1	1562	984.497780129968	26
1	1564	984.841163214382	27
1	1566	987.323135974018	26
1	1570	988.79079575912	25
1	1574	989.390782638921	26
1	1576	989.412442022703	27
1	1578	991.248457420646	26
1	1582	997.142426870002	27
2	269	104.409110873151	1
2	271	104.409110873151	2
2	275	107.592979176087	1
2	277	107.592979176087	2
2	279	109.444733231063	1
2	281	109.444733231063	2
2	283	109.670927511231	1
2	285	109.670927511231	2
2	293	116.150658557276	1
2	295	116.150658557276	2
2	297	116.510880762293	1
2	299	116.510880762293	2
2	303	118.653241402249	1
2	305	118.653241402249	2
2	309	122.743720884863	1
2	311	122.743720884863	2
2	313	123.871947969211	1
2	315	123.871947969211	2
2	321	125.727906434228	1
2	323	125.727906434228	2
2	329	131.486736008662	1
2	331	131.486736008662	2
2	333	132.212262797614	1
2	335	132.212262797614	2
2	341	136.091492635551	1
2	343	136.091492635551	2
2	345	138.598412792555	1
2	347	138.598412792555	2
2	349	139.341785646945	1
2	351	139.341785646945	2
2	355	142.372807925835	1
2	357	142.372807925835	2
2	365	148.528234692071	1
2	367	148.528234692071	2
2	369	149.684604168987	1
2	371	149.684604168987	2
2	373	153.804034543651	1
2	375	153.804034543651	2
2	377	154.128344944477	1
2	379	154.128344944477	2
2	383	154.736850263656	1
2	385	154.736850263656	2
2	393	157.337979454872	1
2	395	157.337979454872	2
2	401	159.901198395686	1
2	403	159.901198395686	2
2	407	161.549611645856	1
2	409	161.549611645856	2
2	413	164.983971320288	1
2	415	164.983971320288	2
2	419	171.898145518715	1
2	421	171.898145518715	2
2	425	177.80194652779	1
2	427	177.80194652779	2
2	429	178.352857528031	1
2	431	178.352857528031	2
2	433	178.919810361774	1
2	435	178.919810361774	2
2	443	181.75525362223	1
2	445	181.75525362223	2
2	449	187.181096613134	1
2	451	187.181096613134	2
2	455	201.034373164026	1
2	457	201.034373164026	2
2	461	205.574735940546	1
2	463	205.574735940546	2
2	467	211.612070549058	1
2	469	211.612070549058	2
2	473	217.046614556377	1
2	475	217.046614556377	2
2	479	222.908151802135	1
2	481	222.908151802135	2
2	485	223.898770229736	1
2	487	223.898770229736	2
2	491	226.064995589512	1
2	493	226.064995589512	2
2	497	231.686494373559	1
2	499	231.686494373559	2
2	503	239.49082470965	1
2	505	239.49082470965	2
2	509	255.095121723206	1
2	511	255.095121723206	2
2	515	257.179846730506	1
2	517	257.179846730506	2
2	521	268.110011149102	1
2	523	268.110011149102	2
2	525	271.97950411983	1
2	527	271.97950411983	2
2	529	272.340686974439	1
2	531	272.340686974439	2
2	535	274.119809701576	1
2	537	274.119809701576	2
2	543	276.387560796739	1
2	545	276.387560796739	2
2	547	276.981562217437	1
2	549	276.981562217437	2
2	557	279.833409145118	1
2	559	279.833409145118	2
2	561	280.188713487327	1
2	563	280.188713487327	2
2	567	281.279730743341	1
2	569	281.279730743341	2
2	573	283.228673765699	1
2	575	283.228673765699	2
2	579	285.73914894099	1
2	581	285.73914894099	2
2	585	288.058524498587	1
2	587	288.058524498587	2
2	591	289.118098448684	1
2	593	289.118098448684	2
2	599	291.161712853666	1
2	601	291.161712853666	2
2	605	295.99203323166	1
2	607	295.99203323166	2
2	611	297.61045106199	1
2	613	297.61045106199	2
2	615	297.833316277556	1
2	617	297.833316277556	2
2	623	299.46785629025	1
2	625	299.46785629025	2
2	627	299.980731859484	1
2	629	299.980731859484	2
2	635	304.290564656272	1
2	637	304.290564656272	2
2	639	306.325590645629	1
2	641	306.325590645629	2
2	645	307.653388553351	1
2	647	307.653388553351	2
2	649	308.414168738381	1
2	651	308.414168738381	2
2	653	309.452034580936	1
2	655	309.452034580936	2
2	665	317.42272834117	1
2	667	317.42272834117	2
2	669	317.802337473153	1
2	671	317.802337473153	2
2	677	324.450776240915	1
2	679	324.450776240915	2
2	681	327.440333175328	1
2	683	327.440333175328	2
2	689	329.099548922586	1
2	691	329.099548922586	2
2	695	330.990886450403	1
2	697	330.990886450403	2
2	699	333.339492720347	1
2	701	333.339492720347	2
2	707	335.158467321137	1
2	709	335.158467321137	2
2	713	337.640995414826	1
2	715	337.640995414826	2
2	719	352.432941190123	1
2	721	352.432941190123	2
2	723	352.961998065202	1
2	725	352.961998065202	2
2	729	364.64071136506	1
2	731	364.64071136506	2
2	737	367.689828322967	1
2	739	367.689828322967	2
2	743	368.562735423579	1
2	745	368.562735423579	2
2	749	381.727697894749	1
2	751	381.727697894749	2
2	753	382.669058536694	1
2	755	382.669058536694	2
2	761	392.003369772999	1
2	763	392.003369772999	2
2	765	394.26025319712	1
2	767	394.26025319712	2
2	769	395.203552270274	1
2	771	395.203552270274	2
2	775	396.867080953897	1
2	777	396.867080953897	2
2	785	400.327431361265	1
2	787	400.327431361265	2
2	791	409.6557544351	1
2	793	409.6557544351	2
2	795	417.191410570093	1
2	797	417.191410570093	2
2	803	426.527549445204	1
2	805	426.527549445204	2
2	809	429.720360820492	1
2	811	429.720360820492	2
2	813	432.278506183476	1
2	815	432.278506183476	2
2	821	440.092957797912	1
2	823	440.092957797912	2
2	827	443.556085473372	1
2	829	443.556085473372	2
2	833	445.552809536946	1
2	835	445.552809536946	2
2	839	447.96389367836	1
2	841	447.96389367836	2
2	845	451.077310994983	1
2	847	451.077310994983	2
2	851	458.243025290369	1
2	853	458.243025290369	2
2	857	461.584469173647	1
2	859	461.584469173647	2
2	863	474.850043204291	1
2	865	474.850043204291	2
2	869	475.687730736853	1
2	871	475.687730736853	2
2	873	477.810704533432	1
2	875	477.810704533432	2
2	879	483.154752189833	1
2	881	483.154752189833	2
2	887	495.110670045076	1
2	889	495.110670045076	2
2	891	495.91828328182	1
2	893	495.91828328182	2
2	899	497.945164106089	1
2	901	497.945164106089	2
2	905	502.723880311612	1
2	907	502.723880311612	2
2	911	509.120112844825	1
2	913	509.120112844825	2
2	917	513.897452202221	1
2	919	513.897452202221	2
2	921	516.599605068984	1
2	923	516.599605068984	2
2	929	526.90631352161	1
2	931	526.90631352161	2
2	935	528.868944334725	1