version 3
run General-23-20221103-10:28:22-6760
attr configname General
attr datetime 20221103-10:28:22
attr datetimef 20221103-102822
attr experiment General
attr inifile block.ini
attr iterationvars "$0=3, $1=20"
attr iterationvarsd 3/20
attr iterationvarsf 3,20-
attr measurement "$0=3, $1=20"
attr network Block
attr processid 6760
attr repetition 3
attr replication #3
attr resultdir results
attr runnumber 23
attr seedset 23
config network Block
config repeat 5
config sim-time-limit 1000s
config warmup-period 100s
config **.alloca.resourceModuleName "\"risorse\""
config **.dealloca.resourceModuleName "\"risorse\""
config **.is.delay exponential(3s)
config **.servente.serviceTime exponential(3s)
config **.dealloca.resourceAmount 2
config **.alloca.resourceAmount 2
config **.risorse.amount 6
config **.sorgente.numJobs (20)
config **.result-recording-modes all

vector 0 Block.servente queueLength:vector ETV
attr interpolationmode sample-hold
attr recordingmode vector
attr title "queue length"
vector 1 Block.servente queueingTime:vector ETV
attr interpolationmode none
attr recordingmode vector
attr title "queueing time at dequeue"
attr unit s
vector 2 Block.alloca queueLength:vector ETV
attr interpolationmode sample-hold
attr recordingmode vector
attr title "queue length"
vector 3 Block.alloca queueingTime:vector ETV
attr interpolationmode none
attr recordingmode vector
attr title "queueing time at dequeue"
attr unit s
vector 4 Block.risorse amount:vector ETV
attr interpolationmode sample-hold
attr recordingmode vector
attr title "available resource"
vector 5 Block.is delayedJobs:vector ETV
attr interpolationmode sample-hold
attr recordingmode vector
attr title "number of delayed jobs"
0	227	103.988689477301	1
0	229	103.988689477301	2
0	231	104.412281283977	1
0	233	104.412281283977	2
0	239	109.8987345301	1
0	241	109.8987345301	2
0	245	113.559648097121	1
0	247	113.559648097121	2
0	251	123.875598032655	1
0	253	123.875598032655	2
0	257	130.912856622868	1
0	259	130.912856622868	2
0	261	131.95220729244	1
0	263	131.95220729244	2
0	265	132.430729687098	1
0	267	132.430729687098	2
0	271	132.887579464479	1
0	273	132.887579464479	2
0	281	142.144471578936	1
0	283	142.144471578936	2
0	285	142.145742504115	1
0	287	142.145742504115	2
0	289	143.176223030156	1
0	291	143.176223030156	2
0	297	145.189031739102	1
0	299	145.189031739102	2
0	301	145.280215670322	1
0	303	145.280215670322	2
0	307	151.601877539227	1
0	309	151.601877539227	2
0	311	151.953645685754	1
0	313	151.953645685754	2
0	319	155.613872484001	1
0	321	155.613872484001	2
0	323	155.696602571581	1
0	325	155.696602571581	2
0	329	156.327958378503	1
0	331	156.327958378503	2
0	341	160.752740584067	1
0	343	160.752740584067	2
0	345	165.276789182803	1
0	347	165.276789182803	2
0	353	175.896601090966	1
0	355	175.896601090966	2
0	359	177.492494943175	1
0	361	177.492494943175	2
0	363	182.258657152795	1
0	365	182.258657152795	2
0	369	184.156004088715	1
0	371	184.156004088715	2
0	375	185.911388440206	1
0	377	185.911388440206	2
0	381	187.332616061788	1
0	383	187.332616061788	2
0	389	192.532158891848	1
0	391	192.532158891848	2
0	393	195.028391439594	1
0	395	195.028391439594	2
0	397	195.480786736821	1
0	399	195.480786736821	2
0	407	205.616997965997	1
0	409	205.616997965997	2
0	411	205.711988794721	1
0	413	205.711988794721	2
0	417	213.623933530905	1
0	419	213.623933530905	2
0	423	215.840547845715	1
0	425	215.840547845715	2
0	427	215.974766139807	1
0	429	215.974766139807	2
0	435	219.548646393961	1
0	437	219.548646393961	2
0	439	220.402078238487	1
0	441	220.402078238487	2
0	449	233.955342319872	1
0	451	233.955342319872	2
0	455	238.543183497897	1
0	457	238.543183497897	2
0	461	240.604616052423	1
0	463	240.604616052423	2
0	467	243.264751932592	1
0	469	243.264751932592	2
0	473	244.903806489378	1
0	475	244.903806489378	2
0	477	246.373277911944	1
0	479	246.373277911944	2
0	481	248.387515607005	1
0	483	248.387515607005	2
0	487	249.97520096204	1
0	489	249.97520096204	2
0	493	251.011475394001	1
0	495	251.011475394001	2
0	503	254.12699971165	1
0	505	254.12699971165	2
0	509	260.293286084165	1
0	511	260.293286084165	2
0	515	268.549223349975	1
0	517	268.549223349975	2
0	521	272.54797762841	1
0	523	272.54797762841	2
0	527	273.584035191421	1
0	529	273.584035191421	2
0	531	278.15106320115	1
0	533	278.15106320115	2
0	537	279.305228805704	1
0	539	279.305228805704	2
0	541	279.621198627404	1
0	543	279.621198627404	2
0	549	282.027861240038	1
0	551	282.027861240038	2
0	557	286.046188363623	1
0	559	286.046188363623	2
0	561	287.140310509554	1
0	563	287.140310509554	2
0	569	289.205942575938	1
0	571	289.205942575938	2
0	575	294.920875244273	1
0	577	294.920875244273	2
0	581	299.180662599958	1
0	583	299.180662599958	2
0	585	300.384885413743	1
0	587	300.384885413743	2
0	591	302.754261878542	1
0	593	302.754261878542	2
0	597	306.045590348854	1
0	599	306.045590348854	2
0	605	317.732186289617	1
0	607	317.732186289617	2
0	609	319.622029384315	1
0	611	319.622029384315	2
0	617	322.19158833747	1
0	619	322.19158833747	2
0	621	322.61724389542	1
0	623	322.61724389542	2
0	629	323.549102959294	1
0	631	323.549102959294	2
0	635	329.158438479905	1
0	637	329.158438479905	2
0	639	329.996932598918	1
0	641	329.996932598918	2
0	645	332.08277555988	1
0	647	332.08277555988	2
0	651	332.773134697704	1
0	653	332.773134697704	2
0	657	333.716650454041	1
0	659	333.716650454041	2
0	665	337.35523565937	1
0	667	337.35523565937	2
0	669	340.089083445822	1
0	671	340.089083445822	2
0	673	340.782004324315	1
0	675	340.782004324315	2
0	681	347.04980826	1
0	683	347.04980826	2
0	687	347.739261258061	1
0	689	347.739261258061	2
0	693	348.472506914846	1
0	695	348.472506914846	2
0	697	348.547461606867	1
0	699	348.547461606867	2
0	701	348.632752884379	1
0	703	348.632752884379	2
0	707	350.688131093652	1
0	709	350.688131093652	2
0	715	352.253451209499	1
0	717	352.253451209499	2
0	719	352.430707130437	1
0	721	352.430707130437	2
0	729	357.69798586416	1
0	731	357.69798586416	2
0	735	357.827437984483	1
0	737	357.827437984483	2
0	739	357.966133522537	1
0	741	357.966133522537	2
0	745	359.32159203394	1
0	747	359.32159203394	2
0	751	359.77828859185	1
0	753	359.77828859185	2
0	759	361.379434593844	1
0	761	361.379434593844	2
0	763	364.931290790566	1
0	765	364.931290790566	2
0	769	365.466619457857	1
0	771	365.466619457857	2
0	775	366.5586996279	1
0	777	366.5586996279	2
0	783	366.89354862549	1
0	785	366.89354862549	2
0	791	380.460856326018	1
0	793	380.460856326018	2
0	795	380.935403603416	1
0	797	380.935403603416	2
0	799	381.265204960421	1
0	801	381.265204960421	2
0	807	381.674057062388	1
0	809	381.674057062388	2
0	815	386.265365501247	1
0	817	386.265365501247	2
0	819	386.803695197604	1
0	821	386.803695197604	2
0	823	386.86826769141	1
0	825	386.86826769141	2
0	829	387.991206705664	1
0	831	387.991206705664	2
0	833	387.996953208138	1
0	835	387.996953208138	2
0	837	388.137540153179	1
0	839	388.137540153179	2
0	843	388.814505443558	1
0	845	388.814505443558	2
0	851	391.193152510502	1
0	853	391.193152510502	2
0	859	397.774756628738	1
0	861	397.774756628738	2
0	863	398.010349131966	1
0	865	398.010349131966	2
0	873	402.742426753617	1
0	875	402.742426753617	2
0	879	407.6338924655	1
0	881	407.6338924655	2
0	885	410.586840555144	1
0	887	410.586840555144	2
0	893	414.970919617675	1
0	895	414.970919617675	2
0	899	417.830146225803	1
0	901	417.830146225803	2
0	905	422.241361061034	1
0	907	422.241361061034	2
0	909	423.044265648279	1
0	911	423.044265648279	2
0	915	426.647251423295	1
0	917	426.647251423295	2
0	921	429.976678159956	1
0	923	429.976678159956	2
0	927	434.345829500379	1
0	929	434.345829500379	2
0	935	436.39587257013	1
0	937	436.39587257013	2
0	941	437.453735209556	1
0	943	437.453735209556	2
0	947	438.842256781754	1
0	949	438.842256781754	2
0	951	441.010082185143	1
0	953	441.010082185143	2
0	959	448.112019869104	1
0	961	448.112019869104	2
0	965	452.734910990945	1
0	967	452.734910990945	2
0	971	457.074213030767	1
0	973	457.074213030767	2
0	977	462.238276698837	1
0	979	462.238276698837	2
0	983	466.039920540852	1
0	985	466.039920540852	2
0	989	469.766687045115	1
0	991	469.766687045115	2
0	993	471.34696838199	1
0	995	471.34696838199	2
0	999	474.884082968977	1
0	1001	474.884082968977	2
0	1005	476.632349879457	1
0	1007	476.632349879457	2
0	1011	478.813456984571	1
0	1013	478.813456984571	2
0	1017	480.720079544438	1
0	1019	480.720079544438	2
0	1023	481.046605613872	1
0	1025	481.046605613872	2
0	1029	482.078236701415	1
0	1031	482.078236701415	2
0	1037	490.603691105795	1
0	1039	490.603691105795	2
0	1041	491.214662117957	1
0	1043	491.214662117957	2
0	1047	492.426461306053	1
0	1049	492.426461306053	2
0	1053	495.51345858575	1
0	1055	495.51345858575	2
0	1061	498.979613397967	1
0	1063	498.979613397967	2
0	1067	506.53369737862	1
0	1069	506.53369737862	2
0	1073	520.23644211395	1
0	1075	520.23644211395	2
0	1077	520.962833776031	1
0	1079	520.962833776031	2
0	1083	523.84802850382	1
0	1085	523.84802850382	2
0	1089	524.517459117425	1
0	1091	524.517459117425	2
0	1095	529.534345055326	1
0	1097	529.534345055326	2
0	1099	530.781414619549	1
0	1101	530.781414619549	2
0	1103	530.884406964591	1
0	1105	530.884406964591	2
0	1111	533.564616477199	1
0	1113	533.564616477199	2
0	1121	543.562577746051	1
0	1123	543.562577746051	2
0	1125	545.484080213669	1
0	1127	545.484080213669	2
0	1133	550.963732250686	1
0	1135	550.963732250686	2
0	1137	551.647750017868	1
0	1139	551.647750017868	2
0	1145	552.138789991154	1
0	1147	552.138789991154	2
0	1149	554.152349830142	1
0	1151	554.152349830142	2
0	1157	566.278373989498	1
0	1159	566.278373989498	2
0	1163	571.78867844288	1
0	1165	571.78867844288	2
0	1167	571.874947351648	1
0	1169	571.874947351648	2
0	1171	573.651459923454	1
0	1173	573.651459923454	2
0	1177	575.112178832211	1
0	1179	575.112178832211	2
0	1185	585.561760403095	1
0	1187	585.561760403095	2
0	1189	586.227400949049	1
0	1191	586.227400949049	2
0	1199	591.396590826223	1
0	1201	591.396590826223	2
0	1205	592.725895601994	1
0	1207	592.725895601994	2
0	1209	592.752387699832	1
0	1211	592.752387699832	2
0	1217	598.067406101533	1
0	1219	598.067406101533	2
0	1221	599.712346039842	1
0	1223	599.712346039842	2
0	1225	600.047065173885	1
0	1227	600.047065173885	2
0	1229	600.968921444505	1
0	1231	600.968921444505	2
0	1235	601.580604961116	1
0	1237	601.580604961116	2
0	1241	602.353603853739	1
0	1243	602.353603853739	2
0	1251	606.4135402223	1
0	1253	606.4135402223	2
0	1259	615.899767628196	1
0	1261	615.899767628196	2
0	1265	621.370978107772	1
0	1267	621.370978107772	2
0	1271	623.355526835987	1
0	1273	623.355526835987	2
0	1277	623.824365052288	1
0	1279	623.824365052288	2
0	1283	627.010576740808	1
0	1285	627.010576740808	2
0	1289	629.903286512372	1
0	1291	629.903286512372	2
0	1295	637.946451613467	1
0	1297	637.946451613467	2
0	1299	640.414751845948	1
0	1301	640.414751845948	2
0	1303	640.539632247716	1
0	1305	640.539632247716	2
0	1307	641.006252316826	1
0	1309	641.006252316826	2
0	1319	643.00308469228	1
0	1321	643.00308469228	2
0	1325	655.699045655261	1
0	1327	655.699045655261	2
0	1329	656.37463896418	1
0	1331	656.37463896418	2
0	1335	659.613957185485	1
0	1337	659.613957185485	2
0	1339	659.659964789266	1
0	1341	659.659964789266	2
0	1343	659.783823982441	1
0	1345	659.783823982441	2
0	1349	661.222914532653	1
0	1351	661.222914532653	2
0	1361	669.322056311767	1
0	1363	669.322056311767	2
0	1367	670.173869838985	1
0	1369	670.173869838985	2
0	1373	674.399797912434	1
0	1375	674.399797912434	2
0	1377	676.185094706415	1
0	1379	676.185094706415	2
0	1383	679.481488463967	1
0	1385	679.481488463967	2
0	1389	681.040517154546	1
0	1391	681.040517154546	2
0	1395	685.060501795116	1
0	1397	685.060501795116	2
0	1399	685.783840839723	1
0	1401	685.783840839723	2
0	1403	686.50934642637	1
0	1405	686.50934642637	2
0	1411	689.598337842768	1
0	1413	689.598337842768	2
0	1419	692.009237898524	1
0	1421	692.009237898524	2
0	1423	692.972698710786	1
0	1425	692.972698710786	2
0	1429	693.255641708911	1
0	1431	693.255641708911	2
0	1435	695.475137662429	1
0	1437	695.475137662429	2
0	1443	703.766981187272	1
0	1445	703.766981187272	2
0	1451	710.88639351844	1
0	1453	710.88639351844	2
0	1455	711.235690354206	1
0	1457	711.235690354206	2
0	1463	720.895247334059	1
0	1465	720.895247334059	2
0	1469	722.926962438516	1
0	1471	722.926962438516	2
0	1473	723.228463955237	1
0	1475	723.228463955237	2
0	1479	726.820283690937	1
0	1481	726.820283690937	2
0	1487	730.425293250917	1
0	1489	730.425293250917	2
0	1493	735.176523559105	1
0	1495	735.176523559105	2
0	1497	737.817762442322	1
0	1499	737.817762442322	2
0	1501	738.042937961102	1
0	1503	738.042937961102	2
0	1511	742.020324297635	1
0	1513	742.020324297635	2
0	1517	744.099258373367	1
0	1519	744.099258373367	2
0	1521	746.57126160248	1
0	1523	746.57126160248	2
0	1525	746.860690713033	1
0	1527	746.860690713033	2
0	1535	761.147009701783	1
0	1537	761.147009701783	2
0	1541	767.369711739961	1
0	1543	767.369711739961	2
0	1545	768.315640730433	1
0	1547	768.315640730433	2
0	1553	773.8701598684	1
0	1555	773.8701598684	2
0	1559	779.573040295436	1
0	1561	779.573040295436	2
0	1565	797.414347702225	1
0	1567	797.414347702225	2
0	1571	801.207809521191	1
0	1573	801.207809521191	2
0	1577	805.370002079182	1
0	1579	805.370002079182	2
0	1583	810.951556122331	1
0	1585	810.951556122331	2
0	1587	811.762190507944	1
0	1589	811.762190507944	2
0	1591	812.098244836653	1
0	1593	812.098244836653	2
0	1595	812.79975788057	1
0	1597	812.79975788057	2
0	1607	817.618721373405	1
0	1609	817.618721373405	2
0	1611	819.209551340912	1
0	1613	819.209551340912	2
0	1617	821.400036744146	1
0	1619	821.400036744146	2
0	1625	835.793171118137	1
0	1627	835.793171118137	2
0	1631	838.239856686886	1
0	1633	838.239856686886	2
0	1635	842.058919899837	1
0	1637	842.058919899837	2
0	1639	842.758532746197	1
0	1641	842.758532746197	2
0	1647	844.628978328752	1
0	1649	844.628978328752	2
0	1653	849.535461934725	1
0	1655	849.535461934725	2
0	1661	852.879582336586	1
0	1663	852.879582336586	2
0	1667	857.290417215733	1
0	1669	857.290417215733	2
0	1671	866.443427876157	1
0	1673	866.443427876157	2
0	1675	866.475201161295	1
0	1677	866.475201161295	2
0	1685	871.983526261875	1
0	1687	871.983526261875	2
0	1689	873.438441464997	1
0	1691	873.438441464997	2
0	1697	876.896668051032	1
0	1699	876.896668051032	2
0	1703	878.673249459388	1
0	1705	878.673249459388	2
0	1709	882.406670829547	1
0	1711	882.406670829547	2
0	1715	886.863716608975	1
0	1717	886.863716608975	2
0	1721	889.447373358782	1
0	1723	889.447373358782	2
0	1727	891.107753012376	1
0	1729	891.107753012376	2
0	1731	894.19929668475	1
0	1733	894.19929668475	2
0	1739	903.29304078018	1
0	1741	903.29304078018	2
0	1745	909.524702546982	1
0	1747	909.524702546982	2
0	1751	909.782458514113	1
0	1753	909.782458514113	2
0	1755	912.982585568036	1
0	1757	912.982585568036	2
0	1759	913.799943255783	1
0	1761	913.799943255783	2
0	1767	917.074442218198	1
0	1769	917.074442218198	2
0	1775	925.74875470196	1
0	1777	925.74875470196	2
0	1779	928.313694455849	1
0	1781	928.313694455849	2
0	1783	929.213048524979	1
0	1785	929.213048524979	2
0	1791	930.730877779749	1
0	1793	930.730877779749	2
0	1795	932.997126747196	1
0	1797	932.997126747196	2
0	1799	933.185820774629	1
0	1801	933.185820774629	2
0	1809	935.16887036357	1
0	1811	935.16887036357	2
0	1817	939.879331019165	1
0	1819	939.879331019165	2
0	1821	940.450486887018	1
0	1823	940.450486887018	2
0	1827	940.871514425353	1
0	1829	940.871514425353	2
0	1833	941.29140670343	1
0	1835	941.29140670343	2
0	1839	942.834915262041	1
0	1841	942.834915262041	2
0	1847	944.25265844947	1
0	1849	944.25265844947	2
0	1853	944.358591032984	1
0	1855	944.358591032984	2
0	1859	948.245140257778	1
0	1861	948.245140257778	2
0	1865	952.424082672367	1
0	1867	952.424082672367	2
0	1871	959.694003401256	1
0	1873	959.694003401256	2
0	1875	959.956291123829	1
0	1877	959.956291123829	2
0	1883	983.060137440854	1
0	1885	983.060137440854	2
0	1889	983.76181437697	1
0	1891	983.76181437697	2
0	1893	985.583345916518	1
0	1895	985.583345916518	2
0	1899	988.713592175834	1
0	1901	988.713592175834	2
1	227	103.988689477301	10.609961900538
1	231	104.412281283977	8.016832481717
1	239	109.8987345301	5.910045052799
1	245	113.559648097121	9.147366813144
1	251	123.875598032655	13.976863502555
1	257	130.912856622868	17.353208525747
1	261	131.95220729244	8.076609259785
1	265	132.430729687098	1.51787306423
1	271	132.887579464479	0.935372172039
1	281	142.144471578936	9.713741891838
1	285	142.145742504115	9.258163039636
1	289	143.176223030156	1.03175145122
1	297	145.189031739102	3.043289234987
1	301	145.280215670322	2.103992640166
1	307	151.601877539227	6.412845800125
1	311	151.953645685754	6.673430015432
1	319	155.613872484001	4.011994944774
1	323	155.696602571581	3.742956885827
1	329	156.327958378503	0.714085894502
1	341	160.752740584067	5.056138012486
1	345	165.276789182803	8.9488308043
1	353	175.896601090966	15.143860506899
1	359	177.492494943175	12.215705760372
1	363	182.258657152795	6.362056061829
1	369	184.156004088715	6.66350914554
1	375	185.911388440206	3.652731287411
1	381	187.332616061788	3.176611973073
1	389	192.532158891848	6.620770451642
1	393	195.028391439594	7.695775377806
1	397	195.480786736821	2.948627844973
1	407	205.616997965997	10.588606526403
1	411	205.711988794721	10.2312020579
1	417	213.623933530905	8.006935564908
1	423	215.840547845715	10.128559050994
1	427	215.974766139807	2.350832608902
1	435	219.548646393961	3.708098548246
1	439	220.402078238487	4.42731209868
1	449	233.955342319872	14.406695925911
1	455	238.543183497897	18.14110525941
1	461	240.604616052423	6.649273732551
1	467	243.264751932592	4.721568434695
1	473	244.903806489378	4.299190436955
1	477	246.373277911944	3.108525979352
1	481	248.387515607005	3.483709117627
1	487	249.97520096204	3.601923050096
1	493	251.011475394001	2.623959786996
1	503	254.12699971165	4.15179874961
1	509	260.293286084165	9.281810690164
1	515	268.549223349975	14.422223638325
1	521	272.54797762841	12.254691544245
1	527	273.584035191421	5.034811841446
1	531	278.15106320115	5.60308557274
1	537	279.305228805704	5.721193614283
1	541	279.621198627404	1.470135426254
1	549	282.027861240038	2.722632434334
1	557	286.046188363623	6.424989736219
1	561	287.140310509554	5.112449269516
1	569	289.205942575938	3.159754212315
1	575	294.920875244273	7.780564734719
1	581	299.180662599958	9.97472002402
1	585	300.384885413743	5.46401016947
1	591	302.754261878542	3.573599278584
1	597	306.045590348854	5.660704935111
1	605	317.732186289617	14.977924411075
1	609	319.622029384315	13.576439035461
1	617	322.19158833747	4.459402047853
1	621	322.61724389542	2.995214511105
1	629	323.549102959294	1.357514621824
1	635	329.158438479905	6.541194584485
1	639	329.996932598918	6.447829639624
1	645	332.08277555988	2.924337079975
1	651	332.773134697704	2.776202098786
1	657	333.716650454041	1.633874894161
1	665	337.35523565937	4.582100961666
1	669	340.089083445822	6.372432991781
1	673	340.782004324315	3.426768664945
1	681	347.04980826	6.960724814178
1	687	347.739261258061	6.957256933746
1	693	348.472506914846	1.422698654846
1	697	348.547461606867	0.808200348806
1	701	348.632752884379	0.160245969533
1	707	350.688131093652	2.140669486785
1	715	352.253451209499	3.62069832512
1	719	352.430707130437	1.742576036785
1	729	357.69798586416	5.444534654661
1	735	357.827437984483	5.396730854046
1	739	357.966133522537	0.268147658377
1	745	359.32159203394	1.494154049457
1	751	359.77828859185	1.812155069313
1	759	361.379434593844	2.057842559904
1	763	364.931290790566	5.153002198716
1	769	365.466619457857	4.087184864013
1	775	366.5586996279	1.627408837334
1	783	366.89354862549	1.426929167633
1	791	380.460856326018	13.902156698118
1	795	380.935403603416	14.041854977926
1	799	381.265204960421	0.804348634403
1	807	381.674057062388	0.738653458972
1	815	386.265365501247	5.000160540826
1	819	386.803695197604	5.129638135216
1	823	386.86826769141	0.602902190163
1	829	387.991206705664	1.18751150806
1	833	387.996953208138	1.128685516728
1	837	388.137540153179	0.146333447515
1	843	388.814505443558	0.81755223542
1	851	391.193152510502	3.055612357323
1	859	397.774756628738	8.96025118518
1	863	398.010349131966	6.817196621464
1	873	402.742426753617	4.967670124879
1	879	407.6338924655	9.623543333534
1	885	410.586840555144	7.844413801527
1	893	414.970919617675	7.337027152175
1	899	417.830146225803	7.243305670659
1	905	422.241361061034	7.270441443359
1	909	423.044265648279	5.214119422476
1	915	426.647251423295	4.405890362261
1	921	429.976678159956	6.932412511677
1	927	434.345829500379	7.698578077084
1	935	436.39587257013	6.419194410174
1	941	437.453735209556	3.107905709177
1	947	438.842256781754	2.446384211624
1	951	441.010082185143	3.556346975587
1	959	448.112019869104	9.26976308735
1	965	452.734910990945	11.724828805802
1	971	457.074213030767	8.962193161663
1	977	462.238276698837	9.503365707892
1	983	466.039920540852	8.965707510085
1	989	469.766687045115	7.528410346278
1	993	471.34696838199	5.307047841138
1	999	474.884082968977	5.117395923862
1	1005	476.632349879457	5.285381497467
1	1011	478.813456984571	3.929374015594
1	1017	480.720079544438	4.087729664981
1	1023	481.046605613872	2.233148629301
1	1029	482.078236701415	1.358157156977
1	1037	490.603691105795	9.557085491923
1	1041	491.214662117957	9.136425416542
1	1047	492.426461306053	1.822770200258
1	1053	495.51345858575	4.298796467793
1	1061	498.979613397967	6.553152091914
1	1067	506.53369737862	11.02023879287
1	1073	520.23644211395	21.256828715983
1	1077	520.962833776031	14.429136397411
1	1083	523.84802850382	3.61158638987
1	1089	524.517459117425	3.554625341394
1	1095	529.534345055326	5.686316551506
1	1099	530.781414619549	6.263955502124
1	1103	530.884406964591	1.350061909265
1	1111	533.564616477199	2.78320185765
1	1121	543.562577746051	12.67817078146
1	1125	545.484080213669	11.91946373647
1	1133	550.963732250686	7.401154504635
1	1137	551.647750017868	6.163669804199
1	1145	552.138789991154	1.175057740468
1	1149	554.152349830142	2.504599812274
1	1157	566.278373989498	14.139583998344
1	1163	571.78867844288	17.636328612738
1	1167	571.874947351648	5.59657336215
1	1171	573.651459923454	1.862781480574
1	1177	575.112178832211	3.237231480563
1	1185	585.561760403095	11.910300479641
1	1189	586.227400949049	11.115222116838
1	1199	591.396590826223	5.834830423128
1	1205	592.725895601994	6.498494652945
1	1209	592.752387699832	1.355796873609
1	1217	598.067406101533	5.341510499539
1	1221	599.712346039842	6.95995834001
1	1225	600.047065173885	1.979659072352
1	1229	600.968921444505	1.256575404663
1	1235	601.580604961116	1.533539787231
1	1241	602.353603853739	1.384682409234
1	1251	606.4135402223	4.832935261184
1	1259	615.899767628196	13.546163774457
1	1265	621.370978107772	14.957437885472
1	1271	623.355526835987	7.455759207791
1	1277	623.824365052288	2.453386944516
1	1283	627.010576740808	3.655049904821
1	1289	629.903286512372	6.078921460084
1	1295	637.946451613467	10.935874872659
1	1299	640.414751845948	10.511465333576
1	1303	640.539632247716	2.593180634249
1	1307	641.006252316826	0.591500470878
1	1319	643.00308469228	2.463452444564
1	1325	655.699045655261	14.692793338435
1	1329	656.37463896418	13.3715542719
1	1335	659.613957185485	3.914911530224
1	1339	659.659964789266	3.285325825086
1	1343	659.783823982441	0.169866796956
1	1349	661.222914532653	1.562949743387
1	1361	669.322056311767	9.538232329326
1	1367	670.173869838985	8.950955306332
1	1373	674.399797912434	5.077741600667
1	1377	676.185094706415	6.01122486743
1	1383	679.481488463967	5.081690551533
1	1389	681.040517154546	4.855422448131
1	1395	685.060501795116	5.579013331149
1	1399	685.783840839723	4.743323685177
1	1403	686.50934642637	1.448844631254
1	1411	689.598337842768	3.814497003045
1	1419	692.009237898524	5.499891472154
1	1423	692.972698710786	3.374360868018
1	1429	693.255641708911	1.246403810387
1	1435	695.475137662429	2.502438951643
1	1443	703.766981187272	10.511339478361
1	1451	710.88639351844	15.411255856011
1	1455	711.235690354206	7.468709166934
1	1463	720.895247334059	10.008853815619
1	1469	722.926962438516	11.69127208431
1	1473	723.228463955237	2.333216621178
1	1479	726.820283690937	3.893321252421
1	1487	730.425293250917	7.19682929568
1	1493	735.176523559105	8.356239868168
1	1497	737.817762442322	7.392469191405
1	1501	738.042937961102	2.866414401997
1	1511	742.020324297635	4.202561855313
1	1517	744.099258373367	6.056320412265
1	1521	746.57126160248	4.550937304845
1	1525	746.860690713033	2.761432339666
1	1535	761.147009701783	14.575748099303
1	1541	767.369711739961	20.509021026928
1	1545	768.315640730433	7.16863102865
1	1553	773.8701598684	6.500448128439
1	1559	779.573040295436	11.257399565003
1	1565	797.414347702225	23.544187833825
1	1571	801.207809521191	21.634769225755
1	1577	805.370002079182	7.955654376957
1	1583	810.951556122331	9.74374660114
1	1587	811.762190507944	6.392188428762
1	1591	812.098244836653	1.146688714322
1	1595	812.79975788057	1.037567372626
1	1607	817.618721373405	5.520476536752
1	1611	819.209551340912	6.409793460342
1	1617	821.400036744146	3.781315370741
1	1625	835.793171118137	16.583619777225
1	1631	838.239856686886	16.83981994274
1	1635	842.058919899837	6.2657487817
1	1639	842.758532746197	4.518676059311
1	1647	844.628978328752	2.570058428915
1	1653	849.535461934725	6.776929188528
1	1661	852.879582336586	8.250604007834
1	1667	857.290417215733	7.754955281008
1	1671	866.443427876157	13.563845539571
1	1675	866.475201161295	9.184783945562
1	1685	871.983526261875	5.540098385718
1	1689	873.438441464997	6.963240303702
1	1697	876.896668051032	4.913141789157
1	1703	878.673249459388	5.234807994391
1	1709	882.406670829547	5.510002778515
1	1715	886.863716608975	8.190467149587
1	1721	889.447373358782	7.040702529235
1	1727	891.107753012376	4.244036403401
1	1731	894.19929668475	4.751923325968
1	1739	903.29304078018	12.185287767804
1	1745	909.524702546982	15.325405862232
1	1751	909.782458514113	6.489417733933
1	1755	912.982585568036	3.457883021054
1	1759	913.799943255783	4.01748474167
1	1767	917.074442218198	4.091856650162
1	1775	925.74875470196	11.948811446177
1	1779	928.313694455849	11.239252237651
1	1783	929.213048524979	3.464293823019
1	1791	930.730877779749	2.4171833239
1	1795	932.997126747196	3.784078222217
1	1799	933.185820774629	2.45494299488
1	1809	935.16887036357	2.171743616374
1	1817	939.879331019165	6.693510244536
1	1821	940.450486887018	5.281616523448
1	1827	940.871514425353	0.992183406188
1	1833	941.29140670343	0.840919816412
1	1839	942.834915262041	1.963400836688
1	1847	944.25265844947	2.96125174604
1	1853	944.358591032984	1.523675770943
1	1859	948.245140257778	3.992481808308
1	1865	952.424082672367	8.065491639383
1	1871	959.694003401256	11.448863143478
1	1875	959.956291123829	7.532208451462
1	1883	983.060137440854	23.366134039598
1	1889	983.76181437697	23.805523253141
1	1893	985.583345916518	2.523208475664
1	1899	988.713592175834	4.951777798864
2	228	103.988689477301	16
2	232	104.412281283977	15
2	236	104.51894566998	16
2	238	106.794336588336	17
2	240	109.8987345301	16
2	244	112.562469930489	17
2	246	113.559648097121	16
2	250	118.016178405328	17
2	252	123.875598032655	16
2	256	127.075591471764	17
2	258	130.912856622868	16
2	262	131.95220729244	15
2	266	132.430729687098	14
2	270	132.541154528422	15
2	272	132.887579464479	14
2	276	133.256344511032	15
2	278	133.360203161578	16
2	280	135.00357055078	17
2	282	142.144471578936	16
2	286	142.145742504115	15
2	290	143.176223030156	14
2	294	143.660720906315	15
2	296	144.125199953365	16
2	298	145.189031739102	15
2	302	145.280215670322	14
2	306	147.394413704864	15
2	308	151.601877539227	14
2	312	151.953645685754	13
2	316	152.145241818962	14
2	318	152.529234408298	15
2	320	155.613872484001	14
2	324	155.696602571581	13
2	328	155.943669045959	14
2	330	156.327958378503	13
2	334	156.405118205219	14
2	336	156.757986999829	15
2	338	157.229477479193	16
2	340	158.208705096991	17
2	342	160.752740584067	16
2	346	165.276789182803	15
2	350	165.75554616246	16
2	352	167.088035023274	17
2	354	175.896601090966	16
2	358	176.685574562209	17
2	360	177.492494943175	16
2	364	182.258657152795	15
2	368	182.673215869814	16
2	370	184.156004088715	15
2	374	184.993621094273	16
2	376	185.911388440206	15
2	380	186.714232955093	16
2	382	187.332616061788	15
2	386	190.203850888981	16
2	388	191.601416627241	17
2	390	192.532158891848	16
2	394	195.028391439594	15
2	398	195.480786736821	14
2	402	195.912031458572	15
2	404	197.275689784061	16
2	406	201.616166756731	17
2	408	205.616997965997	16
2	412	205.711988794721	15
2	416	206.532817445057	16
2	418	213.623933530905	15
2	422	214.288423166103	16
2	424	215.840547845715	15
2	428	215.974766139807	14
2	432	216.399646030263	15
2	434	219.334288507142	16
2	436	219.548646393961	15
2	440	220.402078238487	14
2	444	220.722730014728	15
2	446	221.360300393038	16
2	448	221.567934665065	17
2	450	233.955342319872	16
2	454	236.880663034744	17
2	456	238.543183497897	16
2	460	238.804684369286	17
2	462	240.604616052423	16
2	466	240.768830851678	17
2	468	243.264751932592	16
2	472	244.536304356708	17
2	474	244.903806489378	16
2	478	246.373277911944	15
2	482	248.387515607005	14
2	486	249.842146004064	15
2	488	249.97520096204	14
2	492	250.267133323001	15
2	494	251.011475394001	14
2	498	251.180667934308	15
2	500	251.417989710587	16
2	502	251.980486353583	17
2	504	254.12699971165	16
2	508	256.420267299611	17
2	510	260.293286084165	16
2	514	262.416876055995	17
2	516	268.549223349975	16
2	520	270.649948866044	17
2	522	272.54797762841	16
2	526	272.954085818953	17
2	528	273.584035191421	16
2	532	278.15106320115	15
2	536	278.284472310911	16
2	538	279.305228805704	15
2	542	279.621198627404	14
2	546	280.870465040043	15
2	548	281.46622627212	16
2	550	282.027861240038	15
2	554	282.259992455258	16
2	556	283.558823781682	17
2	558	286.046188363623	16
2	562	287.140310509554	15
2	566	288.813777678754	16
2	568	288.856282263275	17
2	570	289.205942575938	16
2	574	289.22528973075	17
2	576	294.920875244273	16
2	580	295.064131464336	17
2	582	299.180662599958	16
2	586	300.384885413743	15
2	590	300.808346335304	16
2	592	302.754261878542	15
2	596	304.456543412101	16
2	598	306.045590348854	15
2	602	306.702632585129	16
2	604	309.139518637931	17
2	606	317.732186289617	16
2	610	319.622029384315	15