version 3
run General-28-20221103-10:28:22-6760
attr configname General
attr datetime 20221103-10:28:22
attr datetimef 20221103-102822
attr experiment General
attr inifile block.ini
attr iterationvars "$0=3, $1=30"
attr iterationvarsd 3/30
attr iterationvarsf 3,30-
attr measurement "$0=3, $1=30"
attr network Block
attr processid 6760
attr repetition 3
attr replication #3
attr resultdir results
attr runnumber 28
attr seedset 28
config network Block
config repeat 5
config sim-time-limit 1000s
config warmup-period 100s
config **.alloca.resourceModuleName "\"risorse\""
config **.dealloca.resourceModuleName "\"risorse\""
config **.is.delay exponential(3s)
config **.servente.serviceTime exponential(3s)
config **.dealloca.resourceAmount 2
config **.alloca.resourceAmount 2
config **.risorse.amount 6
config **.sorgente.numJobs (30)
config **.result-recording-modes all

vector 0 Block.servente queueLength:vector ETV
attr interpolationmode sample-hold
attr recordingmode vector
attr title "queue length"
vector 1 Block.servente queueingTime:vector ETV
attr interpolationmode none
attr recordingmode vector
attr title "queueing time at dequeue"
attr unit s
vector 2 Block.alloca queueLength:vector ETV
attr interpolationmode sample-hold
attr recordingmode vector
attr title "queue length"
vector 3 Block.alloca queueingTime:vector ETV
attr interpolationmode none
attr recordingmode vector
attr title "queueing time at dequeue"
attr unit s
vector 4 Block.risorse amount:vector ETV
attr interpolationmode sample-hold
attr recordingmode vector
attr title "available resource"
vector 5 Block.is delayedJobs:vector ETV
attr interpolationmode sample-hold
attr recordingmode vector
attr title "number of delayed jobs"
0	261	101.303633956111	1
0	263	101.303633956111	2
0	267	106.417451663748	1
0	269	106.417451663748	2
0	273	107.947474401212	1
0	275	107.947474401212	2
0	281	112.023160491593	1
0	283	112.023160491593	2
0	287	115.479059350628	1
0	289	115.479059350628	2
0	291	116.204823590899	1
0	293	116.204823590899	2
0	297	117.119037479155	1
0	299	117.119037479155	2
0	301	118.79813876408	1
0	303	118.79813876408	2
0	309	122.094328470982	1
0	311	122.094328470982	2
0	315	125.094683490973	1
0	317	125.094683490973	2
0	319	125.331922776345	1
0	321	125.331922776345	2
0	327	132.808508505276	1
0	329	132.808508505276	2
0	335	135.828891319929	1
0	337	135.828891319929	2
0	341	145.280981754915	1
0	343	145.280981754915	2
0	347	146.3653865282	1
0	349	146.3653865282	2
0	351	146.527717149276	1
0	353	146.527717149276	2
0	355	146.65534130828	1
0	357	146.65534130828	2
0	361	148.586176762368	1
0	363	148.586176762368	2
0	369	151.74715536973	1
0	371	151.74715536973	2
0	373	151.824396907051	1
0	375	151.824396907051	2
0	379	153.827586276424	1
0	381	153.827586276424	2
0	385	157.449156705639	1
0	387	157.449156705639	2
0	393	164.098516202458	1
0	395	164.098516202458	2
0	399	168.355075733928	1
0	401	168.355075733928	2
0	407	170.556653063942	1
0	409	170.556653063942	2
0	413	180.356609458705	1
0	415	180.356609458705	2
0	419	185.044607427355	1
0	421	185.044607427355	2
0	423	185.583089648465	1
0	425	185.583089648465	2
0	427	185.645829680139	1
0	429	185.645829680139	2
0	435	189.57226837089	1
0	437	189.57226837089	2
0	439	191.156400506754	1
0	441	191.156400506754	2
0	447	193.573365049441	1
0	449	193.573365049441	2
0	455	195.80275431294	1
0	457	195.80275431294	2
0	461	197.118626034136	1
0	463	197.118626034136	2
0	465	197.741161082757	1
0	467	197.741161082757	2
0	473	201.915738386545	1
0	475	201.915738386545	2
0	479	207.488433608797	1
0	481	207.488433608797	2
0	485	210.017314744447	1
0	487	210.017314744447	2
0	491	214.629927441272	1
0	493	214.629927441272	2
0	495	215.184104531935	1
0	497	215.184104531935	2
0	501	215.56567743383	1
0	503	215.56567743383	2
0	505	218.312468870404	1
0	507	218.312468870404	2
0	509	218.350948570168	1
0	511	218.350948570168	2
0	515	218.822050108431	1
0	517	218.822050108431	2
0	519	219.161834654521	1
0	521	219.161834654521	2
0	527	221.07453253353	1
0	529	221.07453253353	2
0	531	222.385677128059	1
0	533	222.385677128059	2
0	543	227.007704649456	1
0	545	227.007704649456	2
0	551	236.228396798356	1
0	553	236.228396798356	2
0	557	238.760995509346	1
0	559	238.760995509346	2
0	561	239.252181580541	1
0	563	239.252181580541	2
0	567	240.930826610456	1
0	569	240.930826610456	2
0	575	248.276906504024	1
0	577	248.276906504024	2
0	581	257.415872645492	1
0	583	257.415872645492	2
0	585	258.628321039354	1
0	587	258.628321039354	2
0	591	260.763035790775	1
0	593	260.763035790775	2
0	597	264.202289425023	1
0	599	264.202289425023	2
0	603	265.893550923404	1
0	605	265.893550923404	2
0	607	267.074483750732	1
0	609	267.074483750732	2
0	617	273.760566024873	1
0	619	273.760566024873	2
0	623	274.373168842291	1
0	625	274.373168842291	2
0	629	275.78740930385	1
0	631	275.78740930385	2
0	633	277.13268681419	1
0	635	277.13268681419	2
0	639	277.945919149116	1
0	641	277.945919149116	2
0	643	278.281267080466	1
0	645	278.281267080466	2
0	647	279.127004660123	1
0	649	279.127004660123	2
0	659	286.93084836347	1
0	661	286.93084836347	2
0	663	288.264849021315	1
0	665	288.264849021315	2
0	671	293.220718029899	1
0	673	293.220718029899	2
0	677	297.125346619284	1
0	679	297.125346619284	2
0	683	304.674444650411	1
0	685	304.674444650411	2
0	689	308.541012414807	1
0	691	308.541012414807	2
0	695	311.936561276756	1
0	697	311.936561276756	2
0	699	314.238465134702	1
0	701	314.238465134702	2
0	707	321.046258497107	1
0	709	321.046258497107	2
0	713	322.45700228851	1
0	715	322.45700228851	2
0	717	322.70029871687	1
0	719	322.70029871687	2
0	721	322.94862861229	1
0	723	322.94862861229	2
0	727	324.65467488556	1
0	729	324.65467488556	2
0	737	327.497956420545	1
0	739	327.497956420545	2
0	743	330.754828063208	1
0	745	330.754828063208	2
0	749	333.908862097155	1
0	751	333.908862097155	2
0	753	334.543646451398	1
0	755	334.543646451398	2
0	759	335.897114363594	1
0	761	335.897114363594	2
0	763	337.270062814487	1
0	765	337.270062814487	2
0	773	348.09627253078	1
0	775	348.09627253078	2
0	777	350.617861443052	1
0	779	350.617861443052	2
0	785	354.333186847484	1
0	787	354.333186847484	2
0	789	354.695381088987	1
0	791	354.695381088987	2
0	793	354.854260137082	1
0	795	354.854260137082	2
0	801	359.919175158357	1
0	803	359.919175158357	2
0	805	360.077055365862	1
0	807	360.077055365862	2
0	809	360.56315058294	1
0	811	360.56315058294	2
0	813	360.679409883252	1
0	815	360.679409883252	2
0	821	362.461277824085	1
0	823	362.461277824085	2
0	831	364.556969118539	1
0	833	364.556969118539	2
0	835	366.697334866478	1
0	837	366.697334866478	2
0	845	369.834114382467	1
0	847	369.834114382467	2
0	851	371.249130165494	1
0	853	371.249130165494	2
0	857	374.419995081493	1
0	859	374.419995081493	2
0	863	379.825719214865	1
0	865	379.825719214865	2
0	867	380.406917108385	1
0	869	380.406917108385	2
0	873	380.96924739826	1
0	875	380.96924739826	2
0	881	388.256085171819	1
0	883	388.256085171819	2
0	885	390.768507643259	1
0	887	390.768507643259	2
0	891	393.443913760737	1
0	893	393.443913760737	2
0	899	394.295633212746	1
0	901	394.295633212746	2
0	903	398.179402589245	1
0	905	398.179402589245	2
0	909	402.223201457665	1
0	911	402.223201457665	2
0	917	404.540372175961	1
0	919	404.540372175961	2
0	921	405.131889944867	1
0	923	405.131889944867	2
0	929	416.744582114767	1
0	931	416.744582114767	2
0	933	417.130775420542	1
0	935	417.130775420542	2
0	939	418.461470587536	1
0	941	418.461470587536	2
0	947	424.148257674864	1
0	949	424.148257674864	2
0	951	424.521706502209	1
0	953	424.521706502209	2
0	957	426.126918788032	1
0	959	426.126918788032	2
0	961	426.311193114286	1
0	963	426.311193114286	2
0	969	429.508140183073	1
0	971	429.508140183073	2
0	975	435.093082953235	1
0	977	435.093082953235	2
0	979	435.252042350263	1
0	981	435.252042350263	2
0	989	447.596245178816	1
0	991	447.596245178816	2
0	995	448.476713281003	1
0	997	448.476713281003	2
0	999	448.975906898942	1
0	1001	448.975906898942	2
0	1003	449.121196523484	1
0	1005	449.121196523484	2
0	1009	449.399164704029	1
0	1011	449.399164704029	2
0	1017	451.998931123287	1
0	1019	451.998931123287	2
0	1023	452.792856700254	1
0	1025	452.792856700254	2
0	1029	458.615427070567	1
0	1031	458.615427070567	2
0	1035	459.820114133769	1
0	1037	459.820114133769	2
0	1041	461.478124041131	1
0	1043	461.478124041131	2
0	1049	468.353592346913	1
0	1051	468.353592346913	2
0	1053	469.030278308068	1
0	1055	469.030278308068	2
0	1061	475.391118681837	1
0	1063	475.391118681837	2
0	1065	476.022983544695	1
0	1067	476.022983544695	2
0	1069	476.452062761712	1
0	1071	476.452062761712	2
0	1073	477.604149410539	1
0	1075	477.604149410539	2
0	1081	478.800997288067	1
0	1083	478.800997288067	2
0	1087	480.922847774467	1
0	1089	480.922847774467	2
0	1097	483.741207026796	1
0	1099	483.741207026796	2
0	1101	486.470880079952	1
0	1103	486.470880079952	2
0	1109	489.03496623637	1
0	1111	489.03496623637	2
0	1113	490.754309885111	1
0	1115	490.754309885111	2
0	1119	492.792494257712	1
0	1121	492.792494257712	2
0	1127	501.278795332815	1
0	1129	501.278795332815	2
0	1133	507.268726854838	1
0	1135	507.268726854838	2
0	1139	510.443212377809	1
0	1141	510.443212377809	2
0	1143	510.986831229726	1
0	1145	510.986831229726	2
0	1147	512.589377547121	1
0	1149	512.589377547121	2
0	1151	512.734063065848	1
0	1153	512.734063065848	2
0	1163	521.265825894157	1
0	1165	521.265825894157	2
0	1169	526.251071790038	1
0	1171	526.251071790038	2
0	1175	530.772792259662	1
0	1177	530.772792259662	2
0	1179	530.843296788247	1
0	1181	530.843296788247	2
0	1185	533.189192267837	1
0	1187	533.189192267837	2
0	1189	533.494025211297	1
0	1191	533.494025211297	2
0	1199	535.433164211189	1
0	1201	535.433164211189	2
0	1205	543.448698739379	1
0	1207	543.448698739379	2
0	1209	543.940115886326	1
0	1211	543.940115886326	2
0	1217	555.341612813968	1
0	1219	555.341612813968	2
0	1223	562.969872137534	1
0	1225	562.969872137534	2
0	1227	564.68040019949	1
0	1229	564.68040019949	2
0	1235	569.755392581485	1
0	1237	569.755392581485	2
0	1241	575.035401300483	1
0	1243	575.035401300483	2
0	1247	578.137605596416	1
0	1249	578.137605596416	2
0	1251	580.323482832247	1
0	1253	580.323482832247	2
0	1259	581.882655921977	1
0	1261	581.882655921977	2
0	1263	581.920491003242	1
0	1265	581.920491003242	2
0	1271	588.699587035664	1
0	1273	588.699587035664	2
0	1277	590.519698005684	1
0	1279	590.519698005684	2
0	1283	595.149872509003	1
0	1285	595.149872509003	2
0	1289	607.31073088824	1
0	1291	607.31073088824	2
0	1293	607.653646243461	1
0	1295	607.653646243461	2
0	1299	608.4387797343	1
0	1301	608.4387797343	2
0	1303	608.66126741301	1
0	1305	608.66126741301	2
0	1311	613.150227159913	1
0	1313	613.150227159913	2
0	1317	617.265126776805	1
0	1319	617.265126776805	2
0	1321	617.58634272561	1
0	1323	617.58634272561	2
0	1329	618.952030727782	1
0	1331	618.952030727782	2
0	1335	623.562308355163	1
0	1337	623.562308355163	2
0	1341	624.982764125389	1
0	1343	624.982764125389	2
0	1347	626.440158288246	1
0	1349	626.440158288246	2
0	1351	626.815562244986	1
0	1353	626.815562244986	2
0	1355	627.938562465108	1
0	1357	627.938562465108	2
0	1365	636.097686576325	1
0	1367	636.097686576325	2
0	1373	644.950320013994	1
0	1375	644.950320013994	2
0	1379	648.150861420875	1
0	1381	648.150861420875	2
0	1385	649.042825770946	1
0	1387	649.042825770946	2
0	1391	657.314553222885	1
0	1393	657.314553222885	2
0	1395	658.109588787861	1
0	1397	658.109588787861	2
0	1399	660.969125475914	1
0	1401	660.969125475914	2
0	1407	662.355607391328	1
0	1409	662.355607391328	2
0	1413	671.425897630692	1
0	1415	671.425897630692	2
0	1421	674.465731750998	1
0	1423	674.465731750998	2
0	1427	677.206462237093	1
0	1429	677.206462237093	2
0	1431	677.707929373093	1
0	1433	677.707929373093	2
0	1437	678.714075518147	1
0	1439	678.714075518147	2
0	1443	680.509042441672	1
0	1445	680.509042441672	2
0	1449	681.523566532409	1
0	1451	681.523566532409	2
0	1455	683.231313504341	1
0	1457	683.231313504341	2
0	1463	691.1626580369	1
0	1465	691.1626580369	2
0	1469	696.24203380594	1
0	1471	696.24203380594	2
0	1475	698.578620076524	1
0	1477	698.578620076524	2
0	1481	700.918232929406	1
0	1483	700.918232929406	2
0	1487	704.987971079919	1
0	1489	704.987971079919	2
0	1493	705.875239936207	1
0	1495	705.875239936207	2
0	1497	706.244259239973	1
0	1499	706.244259239973	2
0	1501	707.912706050079	1
0	1503	707.912706050079	2
0	1511	711.858003755273	1
0	1513	711.858003755273	2
0	1515	712.995440370024	1
0	1517	712.995440370024	2
0	1519	713.870715340172	1
0	1521	713.870715340172	2
0	1529	730.290045153714	1
0	1531	730.290045153714	2
0	1533	732.452738247311	1
0	1535	732.452738247311	2
0	1539	734.147725782822	1
0	1541	734.147725782822	2
0	1547	739.834754864191	1
0	1549	739.834754864191	2
0	1553	740.124226576967	1
0	1555	740.124226576967	2
0	1559	741.697448586077	1
0	1561	741.697448586077	2
0	1565	745.621397953623	1
0	1567	745.621397953623	2
0	1571	750.164477203645	1
0	1573	750.164477203645	2
0	1575	750.476023926679	1
0	1577	750.476023926679	2
0	1581	757.362050091838	1
0	1583	757.362050091838	2
0	1589	766.49290144669	1
0	1591	766.49290144669	2
0	1593	767.599722129381	1
0	1595	767.599722129381	2
0	1597	767.635020792456	1
0	1599	767.635020792456	2
0	1601	767.830321080257	1
0	1603	767.830321080257	2
0	1613	772.19404064584	1
0	1615	772.19404064584	2
0	1619	775.864334379664	1
0	1621	775.864334379664	2
0	1625	778.336675730217	1
0	1627	778.336675730217	2
0	1629	780.99512466877	1
0	1631	780.99512466877	2
0	1633	781.422730591457	1
0	1635	781.422730591457	2
0	1639	784.738116746724	1
0	1641	784.738116746724	2
0	1643	784.74499316373	1
0	1645	784.74499316373	2
0	1649	786.064021425638	1
0	1651	786.064021425638	2
0	1659	791.975919810542	1
0	1661	791.975919810542	2
0	1665	793.379952277571	1
0	1667	793.379952277571	2
0	1671	794.628727522127	1
0	1673	794.628727522127	2
0	1675	796.63534126254	1
0	1677	796.63534126254	2
0	1683	799.489187839088	1
0	1685	799.489187839088	2
0	1689	800.185317255852	1
0	1691	800.185317255852	2
0	1697	804.038360810576	1
0	1699	804.038360810576	2
0	1701	807.765646883502	1
0	1703	807.765646883502	2
0	1709	811.363583398475	1
0	1711	811.363583398475	2
0	1713	811.889899051265	1
0	1715	811.889899051265	2
0	1717	814.771046913368	1
0	1719	814.771046913368	2
0	1721	814.858239807414	1
0	1723	814.858239807414	2
0	1729	816.679269461191	1
0	1731	816.679269461191	2
0	1737	819.266322128049	1
0	1739	819.266322128049	2
0	1741	820.410879040821	1
0	1743	820.410879040821	2
0	1747	821.153731303281	1
0	1749	821.153731303281	2
0	1755	823.696532043858	1
0	1757	823.696532043858	2
0	1761	826.046893469356	1
0	1763	826.046893469356	2
0	1767	830.992059325264	1
0	1769	830.992059325264	2
0	1771	831.668525723994	1
0	1773	831.668525723994	2
0	1779	832.852744682375	1
0	1781	832.852744682375	2
0	1785	834.626293623523	1
0	1787	834.626293623523	2
0	1791	838.098139031833	1
0	1793	838.098139031833	2
0	1797	842.29775483985	1
0	1799	842.29775483985	2
0	1805	848.560240448685	1
0	1807	848.560240448685	2
0	1811	850.904314609396	1
0	1813	850.904314609396	2
0	1817	857.565500221709	1
0	1819	857.565500221709	2
0	1821	859.638886067481	1
0	1823	859.638886067481	2
0	1825	860.00986470447	1
0	1827	860.00986470447	2
0	1835	864.205079809568	1
0	1837	864.205079809568	2
0	1839	864.961649385767	1
0	1841	864.961649385767	2
0	1843	867.182289335993	1
0	1845	867.182289335993	2
0	1851	869.734429224512	1
0	1853	869.734429224512	2
0	1857	870.959158825689	1
0	1859	870.959158825689	2
0	1861	873.592133087804	1
0	1863	873.592133087804	2
0	1871	877.866571395165	1
0	1873	877.866571395165	2
0	1875	878.0713993033	1
0	1877	878.0713993033	2
0	1879	879.260284283561	1
0	1881	879.260284283561	2
0	1885	879.816590495412	1
0	1887	879.816590495412	2
0	1889	880.009179417844	1
0	1891	880.009179417844	2
0	1899	886.062876381804	1
0	1901	886.062876381804	2
0	1905	888.291729228645	1
0	1907	888.291729228645	2
0	1911	889.548168976672	1
0	1913	889.548168976672	2
0	1917	890.85213992688	1
0	1919	890.85213992688	2
0	1925	897.753525987982	1
0	1927	897.753525987982	2
0	1929	905.382459930906	1
0	1931	905.382459930906	2
0	1933	909.237852002741	1
0	1935	909.237852002741	2
0	1939	911.445164556129	1
0	1941	911.445164556129	2
0	1943	911.686000781781	1
0	1945	911.686000781781	2
0	1951	912.549592473133	1
0	1953	912.549592473133	2
0	1957	912.951383470244	1
0	1959	912.951383470244	2
0	1965	915.706616904938	1
0	1967	915.706616904938	2
0	1971	919.917644549118	1
0	1973	919.917644549118	2
0	1977	920.786394960952	1
0	1979	920.786394960952	2
0	1985	924.498961456574	1
0	1987	924.498961456574	2
0	1991	925.154692788661	1
0	1993	925.154692788661	2
0	1997	929.913879875442	1
0	1999	929.913879875442	2
0	2003	939.18363613091	1
0	2005	939.18363613091	2
0	2007	940.373079122379	1
0	2009	940.373079122379	2
0	2013	941.538913963036	1
0	2015	941.538913963036	2
0	2017	942.479081528867	1
0	2019	942.479081528867	2
0	2023	943.748304286158	1
0	2025	943.748304286158	2
0	2031	945.337177047081	1
0	2033	945.337177047081	2
0	2037	946.736836318656	1
0	2039	946.736836318656	2
0	2041	947.540657444018	1
0	2043	947.540657444018	2
0	2049	951.244152064484	1
0	2051	951.244152064484	2
0	2053	952.506221378742	1
0	2055	952.506221378742	2
0	2059	955.576670570893	1
0	2061	955.576670570893	2
0	2063	956.096893815036	1
0	2065	956.096893815036	2
0	2075	964.281076778102	1
0	2077	964.281076778102	2
0	2079	968.420090096945	1
0	2081	968.420090096945	2
0	2087	975.339953545629	1
0	2089	975.339953545629	2
0	2093	977.550977360986	1
0	2095	977.550977360986	2
0	2099	981.026172746316	1
0	2101	981.026172746316	2
0	2103	982.727645917672	1
0	2105	982.727645917672	2
0	2109	983.160432727101	1
0	2111	983.160432727101	2
0	2117	987.579208042685	1
0	2119	987.579208042685	2
0	2121	988.592346100324	1
0	2123	988.592346100324	2
0	2125	991.80616057781	1
0	2127	991.80616057781	2
0	2135	998.609597166913	1
0	2137	998.609597166913	2
1	261	101.303633956111	11.408025858238
1	267	106.417451663748	9.323606775396
1	273	107.947474401212	6.643840445101
1	281	112.023160491593	5.605708827845
1	287	115.479059350628	7.531584949416
1	291	116.204823590899	4.181663099306
1	297	117.119037479155	1.639978128527
1	301	118.79813876408	2.593315173181
1	309	122.094328470982	4.975290991827
1	315	125.094683490973	6.296544726893
1	319	125.331922776345	3.237594305363
1	327	132.808508505276	7.713825014303
1	335	135.828891319929	10.496968543584
1	341	145.280981754915	12.472473249639
1	347	146.3653865282	10.536495208271
1	351	146.527717149276	1.246735394361
1	355	146.65534130828	0.28995478008
1	361	148.586176762368	2.058459613092
1	369	151.74715536973	5.09181406145
1	373	151.824396907051	3.238220144683
1	379	153.827586276424	2.080430906694
1	385	157.449156705639	5.624759798588
1	393	164.098516202458	10.270929926034
1	399	168.355075733928	10.905919028289
1	407	170.556653063942	6.458136861484
1	413	180.356609458705	12.001533724777
1	419	185.044607427355	14.487954363413
1	423	185.583089648465	5.22648018976
1	427	185.645829680139	0.601222252784
1	435	189.57226837089	3.989178722425
1	439	191.156400506754	5.510570826615
1	447	193.573365049441	4.001096678551
1	455	195.80275431294	4.646353806186
1	461	197.118626034136	3.545260984695
1	465	197.741161082757	1.938406769817
1	473	201.915738386545	4.797112352409
1	479	207.488433608797	9.74727252604
1	485	210.017314744447	8.101576357902
1	491	214.629927441272	7.141493832475
1	495	215.184104531935	5.166789787488
1	501	215.56567743383	0.935749992558
1	505	218.312468870404	3.128364338469
1	509	218.350948570168	2.785271136338
1	515	218.822050108431	0.509581238027
1	519	219.161834654521	0.810886084353
1	527	221.07453253353	2.252482425099
1	531	222.385677128059	3.223842473538
1	543	227.007704649456	5.933172115926
1	551	236.228396798356	13.842719670297
1	557	238.760995509346	11.75329085989
1	561	239.252181580541	3.023784782185
1	567	240.930826610456	2.16983110111
1	575	248.276906504024	9.024724923483
1	581	257.415872645492	16.485046035036
1	585	258.628321039354	10.35141453533
1	591	260.763035790775	3.347163145283
1	597	264.202289425023	5.573968385669
1	603	265.893550923404	5.130515132629
1	607	267.074483750732	2.872194325709
1	617	273.760566024873	7.867015101469
1	623	274.373168842291	7.298685091559
1	629	275.78740930385	2.026843278977
1	633	277.13268681419	2.759517971899
1	639	277.945919149116	2.158509845266
1	643	278.281267080466	1.148580266276
1	647	279.127004660123	1.181085511007
1	659	286.93084836347	8.649581283004
1	663	288.264849021315	9.137844361192
1	671	293.220718029899	6.289869666429
1	677	297.125346619284	8.860497597969
1	683	304.674444650411	11.453726620512
1	689	308.541012414807	11.415665795523
1	695	311.936561276756	7.262116626345
1	699	314.238465134702	5.697452719895
1	707	321.046258497107	9.109697220351
1	713	322.45700228851	8.218537153808
1	717	322.70029871687	1.654040219763
1	721	322.94862861229	0.49162632378
1	727	324.65467488556	1.95437616869
1	737	327.497956420545	4.549327808255
1	743	330.754828063208	6.100153177648
1	749	333.908862097155	6.41090567661
1	753	334.543646451398	3.78881838819
1	759	335.897114363594	1.988252266439
1	763	337.270062814487	2.726416363089
1	773	348.09627253078	12.199158167186
1	777	350.617861443052	13.347798628565
1	785	354.333186847484	6.236914316704
1	789	354.695381088987	4.077519645935
1	793	354.854260137082	0.521073289598
1	801	359.919175158357	5.22379406937
1	805	360.077055365862	5.22279522878
1	809	360.56315058294	0.643975424583
1	813	360.679409883252	0.60235451739
1	821	362.461277824085	1.898127241145
1	831	364.556969118539	3.877559235287
1	835	366.697334866478	4.236057042393
1	845	369.834114382467	5.277145263928
1	851	371.249130165494	4.551795299016
1	857	374.419995081493	4.585880699026
1	863	379.825719214865	8.576589049371
1	867	380.406917108385	5.986922026892
1	873	380.96924739826	1.143528183395
1	881	388.256085171819	7.849168063434
1	885	390.768507643259	9.799260244999
1	891	393.443913760737	5.187828588918
1	899	394.295633212746	3.527125569487
1	903	398.179402589245	4.735488828508
1	909	402.223201457665	7.927568244919
1	917	404.540372175961	6.360969586716
1	921	405.131889944867	2.908688487202
1	929	416.744582114767	12.204209938806
1	933	417.130775420542	11.998885475675
1	939	418.461470587536	1.716888472769
1	947	424.148257674864	7.017482254322
1	951	424.521706502209	6.060235914673
1	957	426.126918788032	1.978661113168
1	961	426.311193114286	1.789486612077
1	969	429.508140183073	3.381221395041
1	975	435.093082953235	8.781889838949
1	979	435.252042350263	5.74390216719
1	989	447.596245178816	12.503162225581
1	995	448.476713281003	13.22467093074
1	999	448.975906898942	1.379661720126
1	1003	449.121196523484	0.644483242481
1	1009	449.399164704029	0.423257805087
1	1017	451.998931123287	2.877734599803
1	1023	452.792856700254	3.393691996225
1	1029	458.615427070567	6.61649594728
1	1035	459.820114133769	7.027257433515
1	1041	461.478124041131	2.862696970564
1	1049	468.353592346913	8.533478213144
1	1053	469.030278308068	7.552154266937
1	1061	475.391118681837	7.037526334924
1	1065	476.022983544695	6.992705236627
1	1069	476.452062761712	1.060944079875
1	1073	477.604149410539	1.581165865844
1	1081	478.800997288067	2.348934526355
1	1087	480.922847774467	3.318698363928
1	1097	483.741207026796	4.940209738729
1	1101	486.470880079952	5.548032305485
1	1109	489.03496623637	5.293759209574
1	1113	490.754309885111	4.283429805159
1	1119	492.792494257712	3.757528021342
1	1127	501.278795332815	10.524485447704
1	1133	507.268726854838	14.476232597126
1	1139	510.443212377809	9.164417044994
1	1143	510.986831229726	3.718104374888
1	1147	512.589377547121	2.146165169312
1	1151	512.734063065848	1.747231836122
1	1163	521.265825894157	8.676448347036
1	1169	526.251071790038	13.51700872419
1	1175	530.772792259662	9.506966365505
1	1179	530.843296788247	4.592224998209
1	1185	533.189192267837	2.416400008175
1	1189	533.494025211297	2.65072842305
1	1199	535.433164211189	2.243971943352
1	1205	543.448698739379	9.954673528082
1	1209	543.940115886326	8.506951675137
1	1217	555.341612813968	11.892914074589
1	1223	562.969872137534	19.029756251208
1	1227	564.68040019949	9.338787385522
1	1235	569.755392581485	6.785520443951
1	1241	575.035401300483	10.355001100993
1	1247	578.137605596416	8.382213014931
1	1251	580.323482832247	5.288081531764
1	1259	581.882655921977	3.745050325561
1	1263	581.920491003242	1.597008170995
1	1271	588.699587035664	6.816931113687
1	1277	590.519698005684	8.599207002442
1	1283	595.149872509003	6.450285473339
1	1289	607.31073088824	16.791032882556
1	1293	607.653646243461	12.503773734458
1	1299	608.4387797343	1.12804884606
1	1303	608.66126741301	1.007621169549
1	1311	613.150227159913	4.711447425613
1	1317	617.265126776805	8.603859363795
1	1321	617.58634272561	4.436115565697
1	1329	618.952030727782	1.686903950977
1	1335	623.562308355163	5.975965629553
1	1341	624.982764125389	6.030733397607
1	1347	626.440158288246	2.877849933083
1	1351	626.815562244986	1.832798119597
1	1355	627.938562465108	1.498404176862
1	1365	636.097686576325	9.282124331339
1	1373	644.950320013994	17.011757548886
1	1379	648.150861420875	12.05317484455
1	1385	649.042825770946	4.092505756952
1	1391	657.314553222885	9.16369180201
1	1395	658.109588787861	9.066763016915
1	1399	660.969125475914	3.654572253029
1	1407	662.355607391328	4.246018603467
1	1413	671.425897630692	10.456772154778
1	1421	674.465731750998	12.11012435967
1	1427	677.206462237093	5.780564606401
1	1431	677.707929373093	3.242197622095
1	1437	678.714075518147	1.507613281054
1	1443	680.509042441672	2.801113068579
1	1449	681.523566532409	2.809491014262
1	1455	683.231313504341	2.722271062669
1	1463	691.1626580369	9.639091504491
1	1469	696.24203380594	13.010720301599
1	1475	698.578620076524	7.415962039624
1	1481	700.918232929406	4.676199123466
1	1487	704.987971079919	6.409351003395
1	1493	705.875239936207	4.957007006801
1	1497	706.244259239973	1.256288160054
1	1501	707.912706050079	2.037466113872
1	1511	711.858003755273	5.6137445153
1	1515	712.995440370024	5.082734319945
1	1519	713.870715340172	2.012711584899
1	1529	730.290045153714	17.29460478369
1	1533	732.452738247311	18.582022907139
1	1539	734.147725782822	3.857680629108
1	1547	739.834754864191	7.38201661688
1	1553	740.124226576967	5.976500794145
1	1559	741.697448586077	1.862693721886
1	1565	745.621397953623	5.497171376656
1	1571	750.164477203645	8.467028617568
1	1575	750.476023926679	4.854625973056
1	1581	757.362050091838	7.197572888193
1	1589	766.49290144669	16.016877520011
1	1593	767.599722129381	10.237672037543
1	1597	767.635020792456	1.142119345766
1	1601	767.830321080257	0.230598950876
1	1613	772.19404064584	4.559019853384
1	1619	775.864334379664	8.034013299407
1	1625	778.336675730217	6.142635084377
1	1629	780.99512466877	5.130790289106
1	1633	781.422730591457	3.08605486124
1	1639	784.738116746724	3.742992077954
1	1643	784.74499316373	3.322262572273
1	1649	786.064021425638	1.325904678914
1	1659	791.975919810542	7.230926646812
1	1665	793.379952277571	7.315930851933
1	1671	794.628727522127	2.652807711585
1	1675	796.63534126254	3.255388984969
1	1683	799.489187839088	4.860460316961
1	1689	800.185317255852	3.549975993312
1	1697	804.038360810576	4.549172971488
1	1701	807.765646883502	7.58032962765
1	1709	811.363583398475	7.325222587899
1	1713	811.889899051265	4.124252167763
1	1717	814.771046913368	3.407463514893
1	1721	814.858239807414	2.968340756149
1	1729	816.679269461191	1.908222547823
1	1737	819.266322128049	4.408082320635
1	1741	820.410879040821	3.73160957963
1	1747	821.153731303281	1.887409175232
1	1755	823.696532043858	3.285653003037
1	1761	826.046893469356	4.893162166075
1	1767	830.992059325264	7.295527281406
1	1771	831.668525723994	5.621632254638
1	1779	832.852744682375	1.860685357111
1	1785	834.626293623523	2.957767899529
1	1791	838.098139031833	5.245394349458
1	1797	842.29775483985	7.671461216327
1	1805	848.560240448685	10.462101416852
1	1811	850.904314609396	8.606559769546
1	1817	857.565500221709	9.005259773024
1	1821	859.638886067481	8.734571458085
1	1825	860.00986470447	2.444364482761
1	1835	864.205079809568	4.566193742087
1	1839	864.961649385767	4.951784681297
1	1843	867.182289335993	2.977209526425
1	1851	869.734429224512	4.772779838745
1	1857	870.959158825689	3.776869489696
1	1861	873.592133087804	3.857703863292
1	1871	877.866571395165	6.907412569476
1	1875	878.0713993033	4.479266215496
1	1879	879.260284283561	1.393712888396
1	1885	879.816590495412	1.745191192112
1	1889	880.009179417844	0.748895134283
1	1899	886.062876381804	6.246285886392
1	1905	888.291729228645	8.282549810801
1	1911	889.548168976672	3.485292594868
1	1917	890.85213992688	2.560410698235
1	1925	897.753525987982	8.20535701131
1	1929	905.382459930906	14.530320004026
1	1933	909.237852002741	11.484326014759
1	1939	911.445164556129	6.062704625223
1	1943	911.686000781781	2.44814877904
1	1951	912.549592473133	1.104427917004
1	1957	912.951383470244	1.265382688463
1	1965	915.706616904938	3.157024431805
1	1971	919.917644549118	6.966261078874
1	1977	920.786394960952	5.079778056014
1	1985	924.498961456574	4.581316907456
1	1991	925.154692788661	4.368297827709
1	1997	929.913879875442	5.414918418868
1	2003	939.18363613091	14.028943342249
1	2007	940.373079122379	10.459199246937
1	2013	941.538913963036	2.355277832126
1	2017	942.479081528867	2.106002406488
1	2023	943.748304286158	2.209390323122
1	2031	945.337177047081	2.858095518214
1	2037	946.736836318656	2.988532032498
1	2041	947.540657444018	2.203480396937
1	2049	951.244152064484	4.507315745828
1	2053	952.506221378742	4.965563934724
1	2059	955.576670570893	4.332518506409
1	2063	956.096893815036	3.590672436294
1	2075	964.281076778102	8.704406207209
1	2079	968.420090096945	12.323196281909
1	2087	975.339953545629	11.058876767527
1	2093	977.550977360986	9.130887264041
1	2099	981.026172746316	5.686219200687
1	2103	982.727645917672	5.176668556686
1	2109	983.160432727101	2.134259980785
1	2117	987.579208042685	4.851562125013
1	2121	988.592346100324	5.431913373223
1	2125	991.80616057781	4.226952535125
1	2135	998.609597166913	10.017251066589
2	262	101.303633956111	25
2	266	103.590373699011	26
2	268	106.417451663748	25
2	272	106.600446828444	26
2	274	107.947474401212	25
2	278	110.468852838153	26
2	280	111.546971716381	27
2	282	112.023160491593	26
2	286	114.983097046442	27
2	288	115.479059350628	26