version 3
run General-25-20221103-10:28:22-6760
attr configname General
attr datetime 20221103-10:28:22
attr datetimef 20221103-102822
attr experiment General
attr inifile block.ini
attr iterationvars "$0=3, $1=30"
attr iterationvarsd 3/30
attr iterationvarsf 3,30-
attr measurement "$0=3, $1=30"
attr network Block
attr processid 6760
attr repetition 0
attr replication #0
attr resultdir results
attr runnumber 25
attr seedset 25
config network Block
config repeat 5
config sim-time-limit 1000s
config warmup-period 100s
config **.alloca.resourceModuleName "\"risorse\""
config **.dealloca.resourceModuleName "\"risorse\""
config **.is.delay exponential(3s)
config **.servente.serviceTime exponential(3s)
config **.dealloca.resourceAmount 2
config **.alloca.resourceAmount 2
config **.risorse.amount 6
config **.sorgente.numJobs (30)
config **.result-recording-modes all

vector 0 Block.servente queueLength:vector ETV
attr interpolationmode sample-hold
attr recordingmode vector
attr title "queue length"
vector 1 Block.servente queueingTime:vector ETV
attr interpolationmode none
attr recordingmode vector
attr title "queueing time at dequeue"
attr unit s
vector 2 Block.alloca queueLength:vector ETV
attr interpolationmode sample-hold
attr recordingmode vector
attr title "queue length"
vector 3 Block.alloca queueingTime:vector ETV
attr interpolationmode none
attr recordingmode vector
attr title "queueing time at dequeue"
attr unit s
vector 4 Block.risorse amount:vector ETV
attr interpolationmode sample-hold
attr recordingmode vector
attr title "available resource"
vector 5 Block.is delayedJobs:vector ETV
attr interpolationmode sample-hold
attr recordingmode vector
attr title "number of delayed jobs"
0	271	100.527613309349	1
0	273	100.527613309349	2
0	281	103.819127251536	1
0	283	103.819127251536	2
0	285	104.045749084789	1
0	287	104.045749084789	2
0	289	104.209373779342	1
0	291	104.209373779342	2
0	299	114.698350894064	1
0	301	114.698350894064	2
0	305	117.989950471335	1
0	307	117.989950471335	2
0	311	123.881341869302	1
0	313	123.881341869302	2
0	317	126.463446069058	1
0	319	126.463446069058	2
0	321	126.852080263616	1
0	323	126.852080263616	2
0	329	131.021853254218	1
0	331	131.021853254218	2
0	333	132.599264935257	1
0	335	132.599264935257	2
0	339	135.296831888042	1
0	341	135.296831888042	2
0	345	137.100539401499	1
0	347	137.100539401499	2
0	351	138.673972242649	1
0	353	138.673972242649	2
0	355	138.74140628508	1
0	357	138.74140628508	2
0	361	140.272600747404	1
0	363	140.272600747404	2
0	369	142.5278718374	1
0	371	142.5278718374	2
0	373	142.568094421236	1
0	375	142.568094421236	2
0	379	144.408332554889	1
0	381	144.408332554889	2
0	383	144.555681233056	1
0	385	144.555681233056	2
0	387	145.266299320474	1
0	389	145.266299320474	2
0	401	150.843590745393	1
0	403	150.843590745393	2
0	405	154.098398429937	1
0	407	154.098398429937	2
0	411	157.253460683924	1
0	413	157.253460683924	2
0	419	163.104054606035	1
0	421	163.104054606035	2
0	423	163.163711298427	1
0	425	163.163711298427	2
0	431	177.125062901019	1
0	433	177.125062901019	2
0	435	177.569072013115	1
0	437	177.569072013115	2
0	443	181.452660319089	1
0	445	181.452660319089	2
0	447	182.411174356362	1
0	449	182.411174356362	2
0	451	185.653644785614	1
0	453	185.653644785614	2
0	461	187.028675909725	1
0	463	187.028675909725	2
0	465	187.756921960998	1
0	467	187.756921960998	2
0	469	188.681926035715	1
0	471	188.681926035715	2
0	475	189.798283726073	1
0	477	189.798283726073	2
0	479	190.480585721518	1
0	481	190.480585721518	2
0	487	191.380725962939	1
0	489	191.380725962939	2
0	493	192.515525730318	1
0	495	192.515525730318	2
0	497	192.690723083067	1
0	499	192.690723083067	2
0	503	193.673772615172	1
0	505	193.673772615172	2
0	515	201.179143359228	1
0	517	201.179143359228	2
0	521	204.321952616501	1
0	523	204.321952616501	2
0	525	205.198446185346	1
0	527	205.198446185346	2
0	531	208.967531007624	1
0	533	208.967531007624	2
0	537	210.059509538727	1
0	539	210.059509538727	2
0	543	211.267330321004	1
0	545	211.267330321004	2
0	549	214.145742524863	1
0	551	214.145742524863	2
0	557	216.184918971493	1
0	559	216.184918971493	2
0	561	220.058205528491	1
0	563	220.058205528491	2
0	567	223.20531716751	1
0	569	223.20531716751	2
0	573	224.578181446552	1
0	575	224.578181446552	2
0	581	226.700962154646	1
0	583	226.700962154646	2
0	585	231.176599590725	1
0	587	231.176599590725	2
0	591	231.583967901897	1
0	593	231.583967901897	2
0	595	232.835372689292	1
0	597	232.835372689292	2
0	605	240.557109441524	1
0	607	240.557109441524	2
0	611	241.728701233608	1
0	613	241.728701233608	2
0	617	242.998407001504	1
0	619	242.998407001504	2
0	621	244.583993802456	1
0	623	244.583993802456	2
0	625	245.893952826229	1
0	627	245.893952826229	2
0	635	251.4351673669	1
0	637	251.4351673669	2
0	639	252.019584728811	1
0	641	252.019584728811	2
0	643	252.089996328475	1
0	645	252.089996328475	2
0	651	256.777677237788	1
0	653	256.777677237788	2
0	655	256.949256881509	1
0	657	256.949256881509	2
0	665	273.859934208465	1
0	667	273.859934208465	2
0	669	275.689582182458	1
0	671	275.689582182458	2
0	677	280.2234666204	1
0	679	280.2234666204	2
0	683	287.565307667061	1
0	685	287.565307667061	2
0	687	290.06092971816	1
0	689	290.06092971816	2
0	695	293.102953494337	1
0	697	293.102953494337	2
0	701	294.878949620144	1
0	703	294.878949620144	2
0	707	294.950213937793	1
0	709	294.950213937793	2
0	713	297.024913501769	1
0	715	297.024913501769	2
0	717	297.291768025251	1
0	719	297.291768025251	2
0	725	301.497558796461	1
0	727	301.497558796461	2
0	731	302.150778679771	1
0	733	302.150778679771	2
0	737	305.865240237927	1
0	739	305.865240237927	2
0	741	307.952987268014	1
0	743	307.952987268014	2
0	749	318.880716733427	1
0	751	318.880716733427	2
0	755	323.074114001406	1
0	757	323.074114001406	2
0	759	324.26990695266	1
0	761	324.26990695266	2
0	763	325.36595962396	1
0	765	325.36595962396	2
0	767	326.149958494739	1
0	769	326.149958494739	2
0	775	330.100278101075	1
0	777	330.100278101075	2
0	783	333.667390553949	1
0	785	333.667390553949	2
0	789	341.050542757236	1
0	791	341.050542757236	2
0	793	341.267138577901	1
0	795	341.267138577901	2
0	799	345.413692699723	1
0	801	345.413692699723	2
0	807	350.985103083647	1
0	809	350.985103083647	2
0	811	352.386339017582	1
0	813	352.386339017582	2
0	821	356.838590562138	1
0	823	356.838590562138	2
0	825	357.274375231218	1
0	827	357.274375231218	2
0	831	364.939406742024	1
0	833	364.939406742024	2
0	835	365.543139044186	1
0	837	365.543139044186	2
0	843	367.278507933408	1
0	845	367.278507933408	2
0	849	368.237131507195	1
0	851	368.237131507195	2
0	853	371.496544282438	1
0	855	371.496544282438	2
0	861	372.656024523685	1
0	863	372.656024523685	2
0	869	376.26898038772	1
0	871	376.26898038772	2
0	875	380.993250379323	1
0	877	380.993250379323	2
0	879	381.167329502903	1
0	881	381.167329502903	2
0	887	382.71420879812	1
0	889	382.71420879812	2
0	893	385.001213476021	1
0	895	385.001213476021	2
0	899	386.082999496082	1
0	901	386.082999496082	2
0	905	387.129618866475	1
0	907	387.129618866475	2
0	911	389.407424686846	1
0	913	389.407424686846	2
0	917	399.290141331223	1
0	919	399.290141331223	2
0	921	405.477019709783	1
0	923	405.477019709783	2
0	925	405.870553437819	1
0	927	405.870553437819	2
0	929	406.132222195254	1
0	931	406.132222195254	2
0	933	406.271778692292	1
0	935	406.271778692292	2
0	939	406.517631938603	1
0	941	406.517631938603	2
0	945	407.672014008166	1
0	947	407.672014008166	2
0	953	408.233568749896	1
0	955	408.233568749896	2
0	959	409.042741774352	1
0	961	409.042741774352	2
0	963	410.754470061165	1
0	965	410.754470061165	2
0	967	410.982635296395	1
0	969	410.982635296395	2
0	971	412.050826679472	1
0	973	412.050826679472	2
0	983	414.078003647137	1
0	985	414.078003647137	2
0	993	417.473649214018	1
0	995	417.473649214018	2
0	1001	422.996096051213	1
0	1003	422.996096051213	2
0	1007	427.867272289926	1
0	1009	427.867272289926	2
0	1013	429.756262655836	1
0	1015	429.756262655836	2
0	1017	431.910764879314	1
0	1019	431.910764879314	2
0	1025	434.625487432875	1
0	1027	434.625487432875	2
0	1031	440.599985495328	1
0	1033	440.599985495328	2
0	1037	444.210277370229	1
0	1039	444.210277370229	2
0	1043	444.695206677942	1
0	1045	444.695206677942	2
0	1047	447.171214352631	1
0	1049	447.171214352631	2
0	1053	447.666114877171	1
0	1055	447.666114877171	2
0	1059	448.711560029594	1
0	1061	448.711560029594	2
0	1067	450.70462552163	1
0	1069	450.70462552163	2
0	1071	451.571413034875	1
0	1073	451.571413034875	2
0	1077	453.479927387635	1
0	1079	453.479927387635	2
0	1083	456.979242436234	1
0	1085	456.979242436234	2
0	1089	458.12779291662	1
0	1091	458.12779291662	2
0	1097	463.941458456392	1
0	1099	463.941458456392	2
0	1101	468.043511686825	1
0	1103	468.043511686825	2
0	1105	468.313707318178	1
0	1107	468.313707318178	2
0	1109	470.095313677529	1
0	1111	470.095313677529	2
0	1119	477.784177473838	1
0	1121	477.784177473838	2
0	1125	484.571783413476	1
0	1127	484.571783413476	2
0	1133	494.104937043809	1
0	1135	494.104937043809	2
0	1137	496.595408008466	1
0	1139	496.595408008466	2
0	1143	497.782348425797	1
0	1145	497.782348425797	2
0	1149	498.841907089138	1
0	1151	498.841907089138	2
0	1155	499.85185353567	1
0	1157	499.85185353567	2
0	1163	501.447439276405	1
0	1165	501.447439276405	2
0	1169	506.812583491836	1
0	1171	506.812583491836	2
0	1175	513.017057801083	1
0	1177	513.017057801083	2
0	1179	515.059531524388	1
0	1181	515.059531524388	2
0	1187	517.346623700738	1
0	1189	517.346623700738	2
0	1191	520.621538540118	1
0	1193	520.621538540118	2
0	1199	524.208471644779	1
0	1201	524.208471644779	2
0	1203	527.410288382433	1
0	1205	527.410288382433	2
0	1207	528.21287109195	1
0	1209	528.21287109195	2
0	1213	528.721441657609	1
0	1215	528.721441657609	2
0	1223	534.103860002557	1
0	1225	534.103860002557	2
0	1229	537.295967668289	1
0	1231	537.295967668289	2
0	1233	537.781538887777	1
0	1235	537.781538887777	2
0	1239	541.701248431382	1
0	1241	541.701248431382	2
0	1243	541.964329695961	1
0	1245	541.964329695961	2
0	1247	542.73446967416	1
0	1249	542.73446967416	2
0	1255	543.673574375461	1
0	1257	543.673574375461	2
0	1261	545.110835740432	1
0	1263	545.110835740432	2
0	1269	547.650686094418	1
0	1271	547.650686094418	2
0	1273	547.798805050752	1
0	1275	547.798805050752	2
0	1279	550.372075485732	1
0	1281	550.372075485732	2
0	1285	551.834766848019	1
0	1287	551.834766848019	2
0	1295	556.022367371445	1
0	1297	556.022367371445	2
0	1299	556.621239076284	1
0	1301	556.621239076284	2
0	1307	559.997411745029	1
0	1309	559.997411745029	2
0	1313	561.897618226369	1
0	1315	561.897618226369	2
0	1317	563.808811370635	1
0	1319	563.808811370635	2
0	1325	565.965488521019	1
0	1327	565.965488521019	2
0	1331	581.760277874834	1
0	1333	581.760277874834	2
0	1337	592.716233581434	1
0	1339	592.716233581434	2
0	1341	597.29696491632	1
0	1343	597.29696491632	2
0	1345	598.32060331297	1
0	1347	598.32060331297	2
0	1353	601.184834167084	1
0	1355	601.184834167084	2
0	1361	605.086026092483	1
0	1363	605.086026092483	2
0	1365	605.37275127687	1
0	1367	605.37275127687	2
0	1369	605.821620523924	1
0	1371	605.821620523924	2
0	1377	607.492813581869	1
0	1379	607.492813581869	2
0	1385	616.474147863498	1
0	1387	616.474147863498	2
0	1391	620.812351255608	1
0	1393	620.812351255608	2
0	1395	623.861239159481	1
0	1397	623.861239159481	2
0	1403	628.518434379731	1
0	1405	628.518434379731	2
0	1409	630.178632785444	1
0	1411	630.178632785444	2
0	1415	631.433780303391	1
0	1417	631.433780303391	2
0	1419	631.997661115401	1
0	1421	631.997661115401	2
0	1427	636.447539532919	1
0	1429	636.447539532919	2
0	1433	643.340496328761	1
0	1435	643.340496328761	2
0	1439	647.766522572826	1
0	1441	647.766522572826	2
0	1445	648.246662578863	1
0	1447	648.246662578863	2
0	1449	648.823122953468	1
0	1451	648.823122953468	2
0	1453	649.514727382907	1
0	1455	649.514727382907	2
0	1461	657.407066946406	1
0	1463	657.407066946406	2
0	1467	658.249817332952	1
0	1469	658.249817332952	2
0	1475	662.572490318066	1
0	1477	662.572490318066	2
0	1479	663.631153022348	1
0	1481	663.631153022348	2
0	1487	672.217870564719	1
0	1489	672.217870564719	2
0	1491	673.417358243097	1
0	1493	673.417358243097	2
0	1499	685.0347849989	1
0	1501	685.0347849989	2
0	1505	688.442508467143	1
0	1507	688.442508467143	2
0	1509	688.837774129876	1
0	1511	688.837774129876	2
0	1517	695.083007468869	1
0	1519	695.083007468869	2
0	1521	698.921424202221	1
0	1523	698.921424202221	2
0	1529	708.580445767185	1
0	1531	708.580445767185	2
0	1533	710.156973279815	1
0	1535	710.156973279815	2
0	1539	713.914931736142	1
0	1541	713.914931736142	2
0	1547	722.331325070414	1
0	1549	722.331325070414	2
0	1553	724.251186955782	1
0	1555	724.251186955782	2
0	1557	727.550783432432	1
0	1559	727.550783432432	2
0	1561	730.294082222968	1
0	1563	730.294082222968	2
0	1567	733.201163186708	1
0	1569	733.201163186708	2
0	1577	744.829012627053	1
0	1579	744.829012627053	2
0	1583	747.234854074563	1
0	1585	747.234854074563	2
0	1589	754.74523223194	1
0	1591	754.74523223194	2
0	1595	765.136396153428	1
0	1597	765.136396153428	2
0	1599	766.742675689349	1
0	1601	766.742675689349	2
0	1603	768.617443842173	1
0	1605	768.617443842173	2
0	1609	768.980864097413	1
0	1611	768.980864097413	2
0	1613	769.183657524007	1
0	1615	769.183657524007	2
0	1619	771.706772295756	1
0	1621	771.706772295756	2
0	1625	772.851696846362	1
0	1627	772.851696846362	2
0	1629	773.699593638706	1
0	1631	773.699593638706	2
0	1639	775.671360727807	1
0	1641	775.671360727807	2
0	1645	777.495545376568	1
0	1647	777.495545376568	2
0	1653	781.228054179283	1
0	1655	781.228054179283	2
0	1657	781.321973215366	1
0	1659	781.321973215366	2
0	1665	782.744571385043	1
0	1667	782.744571385043	2
0	1671	786.448298786182	1
0	1673	786.448298786182	2
0	1679	788.286778103081	1
0	1681	788.286778103081	2
0	1683	788.502239998952	1
0	1685	788.502239998952	2
0	1689	790.982660367147	1
0	1691	790.982660367147	2
0	1695	791.122394644352	1
0	1697	791.122394644352	2
0	1703	803.859850810261	1
0	1705	803.859850810261	2
0	1709	805.607142713443	1
0	1711	805.607142713443	2
0	1713	806.941708331679	1
0	1715	806.941708331679	2
0	1721	812.279625126368	1
0	1723	812.279625126368	2
0	1727	815.554305655797	1
0	1729	815.554305655797	2
0	1733	819.357732124054	1
0	1735	819.357732124054	2
0	1739	822.12339238125	1
0	1741	822.12339238125	2
0	1743	823.518264328643	1
0	1745	823.518264328643	2
0	1747	825.20162158815	1
0	1749	825.20162158815	2
0	1753	826.82833477508	1
0	1755	826.82833477508	2
0	1759	828.695180266667	1
0	1761	828.695180266667	2
0	1769	836.2100486216	1
0	1771	836.2100486216	2
0	1775	839.189582028173	1
0	1777	839.189582028173	2
0	1779	839.287014545078	1
0	1781	839.287014545078	2
0	1783	841.200719947239	1
0	1785	841.200719947239	2
0	1793	843.582723685448	1
0	1795	843.582723685448	2
0	1797	843.784815295306	1
0	1799	843.784815295306	2
0	1805	858.175670356215	1
0	1807	858.175670356215	2
0	1811	860.654083364751	1
0	1813	860.654083364751	2
0	1817	863.972597110107	1
0	1819	863.972597110107	2
0	1823	870.73396130165	1
0	1825	870.73396130165	2
0	1827	871.242757935911	1
0	1829	871.242757935911	2
0	1831	871.737234476603	1
0	1833	871.737234476603	2
0	1841	878.458105333309	1
0	1843	878.458105333309	2
0	1845	879.870479263419	1
0	1847	879.870479263419	2
0	1853	885.235299270859	1
0	1855	885.235299270859	2
0	1857	885.249780281856	1
0	1859	885.249780281856	2
0	1865	888.213614258519	1
0	1867	888.213614258519	2
0	1869	888.694710680807	1
0	1871	888.694710680807	2
0	1873	890.280310921448	1
0	1875	890.280310921448	2
0	1879	892.796361871211	1
0	1881	892.796361871211	2
0	1885	894.480919248165	1
0	1887	894.480919248165	2
0	1893	898.803254518306	1
0	1895	898.803254518306	2
0	1897	899.861450283933	1
0	1899	899.861450283933	2
0	1907	909.588233565751	1
0	1909	909.588233565751	2
0	1911	910.272998666809	1
0	1913	910.272998666809	2
0	1917	913.076194296086	1
0	1919	913.076194296086	2
0	1921	913.500292689293	1
0	1923	913.500292689293	2
0	1931	920.80868646998	1
0	1933	920.80868646998	2
0	1937	924.095701145708	1
0	1939	924.095701145708	2
0	1943	929.519052719469	1
0	1945	929.519052719469	2
0	1947	929.737970361062	1
0	1949	929.737970361062	2
0	1951	931.333732779038	1
0	1953	931.333732779038	2
0	1955	931.619929670836	1
0	1957	931.619929670836	2
0	1967	935.998401034795	1
0	1969	935.998401034795	2
0	1971	936.072277081996	1
0	1973	936.072277081996	2
0	1979	938.631151070644	1
0	1981	938.631151070644	2
0	1983	939.310413151537	1
0	1985	939.310413151537	2
0	1987	939.320381969081	1
0	1989	939.320381969081	2
0	1991	939.914000596116	1
0	1993	939.914000596116	2
0	1995	940.311732463474	1
0	1997	940.311732463474	2
0	2003	945.185575100627	1
0	2005	945.185575100627	2
0	2013	948.021288970853	1
0	2015	948.021288970853	2
0	2021	952.694638135839	1
0	2023	952.694638135839	2
0	2025	955.416364689616	1
0	2027	955.416364689616	2
0	2029	955.593334534314	1
0	2031	955.593334534314	2
0	2039	958.733802086922	1
0	2041	958.733802086922	2
0	2045	961.08110557537	1
0	2047	961.08110557537	2
0	2051	965.871832234435	1
0	2053	965.871832234435	2
0	2055	966.870141502875	1
0	2057	966.870141502875	2
0	2063	975.597388292602	1
0	2065	975.597388292602	2
0	2069	984.674217515614	1
0	2071	984.674217515614	2
0	2073	985.467733636546	1
0	2075	985.467733636546	2
0	2077	985.628134909136	1
0	2079	985.628134909136	2
0	2083	987.325346454505	1
0	2085	987.325346454505	2
0	2091	992.236304915675	1
0	2093	992.236304915675	2
0	2095	992.694853543719	1
0	2097	992.694853543719	2
0	2099	993.083799308175	1
0	2101	993.083799308175	2
0	2103	993.102353203679	1
0	2105	993.102353203679	2
0	2107	993.998778631519	1
0	2109	993.998778631519	2
0	2115	995.052181290611	1
0	2117	995.052181290611	2
1	271	100.527613309349	7.3259669448
1	281	103.819127251536	7.548482818004
1	285	104.045749084789	3.51813577544
1	289	104.209373779342	0.390246527806
1	299	114.698350894064	10.652601809275
1	305	117.989950471335	13.780576691993
1	311	123.881341869302	9.182990975238
1	317	126.463446069058	8.473495597723
1	321	126.852080263616	2.970738394314
1	329	131.021853254218	4.55840718516
1	333	132.599264935257	5.747184671641
1	339	135.296831888042	4.274978633824
1	345	137.100539401499	4.501274466242
1	351	138.673972242649	3.377140354607
1	355	138.74140628508	1.640866883581
1	361	140.272600747404	1.598628504755
1	369	142.5278718374	3.78646555232
1	373	142.568094421236	2.295493673832
1	379	144.408332554889	1.880460717489
1	383	144.555681233056	1.98758681182
1	387	145.266299320474	0.857966765585
1	401	150.843590745393	6.287909512337
1	405	154.098398429937	8.832099109463
1	411	157.253460683924	6.409869938531
1	419	163.104054606035	9.005656176098
1	423	163.163711298427	5.910250614503
1	431	177.125062901019	14.021008294984
1	435	177.569072013115	14.405360714688
1	443	181.452660319089	4.32759741807
1	447	182.411174356362	4.842102343247
1	451	185.653644785614	4.200984466525
1	461	187.028675909725	4.617501553363
1	465	187.756921960998	2.103277175384
1	469	188.681926035715	1.65325012599
1	475	189.798283726073	2.041361765075
1	479	190.480585721518	1.798659685803
1	487	191.380725962939	1.582442236866
1	493	192.515525730318	2.0349400088
1	497	192.690723083067	1.309997120128
1	503	193.673772615172	1.158246884854
1	515	201.179143359228	8.488420276161
1	521	204.321952616501	10.648180001329
1	525	205.198446185346	4.019302826118
1	531	208.967531007624	4.645578391123
1	537	210.059509538727	4.861063353381
1	543	211.267330321004	2.29979931338
1	549	214.145742524863	4.086232986136
1	557	216.184918971493	4.917588650489
1	561	220.058205528491	5.912463003628
1	567	223.20531716751	7.020398196017
1	573	224.578181446552	4.519975918061
1	581	226.700962154646	3.495644987136
1	585	231.176599590725	6.598418144173
1	591	231.583967901897	4.883005747251
1	595	232.835372689292	1.658773098567
1	605	240.557109441524	8.973141539627
1	611	241.728701233608	8.893328544316
1	617	242.998407001504	2.44129755998
1	621	244.583993802456	2.855292568848
1	625	245.893952826229	2.895545824725
1	635	251.4351673669	6.851173564444
1	639	252.019584728811	6.125631902582
1	643	252.089996328475	0.654828961575
1	651	256.777677237788	4.758092508977
1	655	256.949256881509	4.859260553034
1	665	273.859934208465	17.082256970677
1	669	275.689582182458	18.740325300949
1	677	280.2234666204	6.363532411935
1	683	287.565307667061	11.875725484603
1	687	290.06092971816	9.83746309776
1	695	293.102953494337	5.537645827276
1	701	294.878949620144	4.818019901984
1	707	294.950213937793	1.847260443456
1	713	297.024913501769	2.145963881625
1	717	297.291768025251	2.341554087458
1	725	301.497558796461	4.472645294692
1	731	302.150778679771	4.85901065452
1	737	305.865240237927	4.367681441466
1	741	307.952987268014	5.802208588243
1	749	318.880716733427	13.0154764955
1	755	323.074114001406	15.121126733392
1	759	324.26990695266	5.389190219233
1	763	325.36595962396	2.291845622554
1	767	326.149958494739	1.880051542079
1	775	330.100278101075	4.734318477115
1	783	333.667390553949	7.51743205921
1	789	341.050542757236	10.950264656161
1	793	341.267138577901	7.599748023952
1	799	345.413692699723	4.363149942487
1	807	350.985103083647	9.717964505746
1	811	352.386339017582	6.972646317859
1	821	356.838590562138	5.853487478491
1	825	357.274375231218	4.888036213636
1	831	364.939406742024	8.100816179886
1	835	365.543139044186	8.268763812968
1	843	367.278507933408	2.339101191384
1	849	368.237131507195	2.693992463009
1	853	371.496544282438	4.21803634903
1	861	372.656024523685	4.41889301649
1	869	376.26898038772	4.772436105282
1	875	380.993250379323	8.337225855638
1	879	381.167329502903	4.898349115183
1	887	382.71420879812	1.720958418797
1	893	385.001213476021	3.833883973118
1	899	386.082999496082	3.368790697962
1	905	387.129618866475	2.128405390454
1	911	389.407424686846	3.324425190764
1	917	399.290141331223	12.160522464748
1	921	405.477019709783	16.069595022937
1	925	405.870553437819	6.580412106596
1	929	406.132222195254	0.655202485471
1	933	406.271778692292	0.401225254473
1	939	406.517631938603	0.385409743349
1	945	407.672014008166	1.400235315874
1	953	408.233568749896	1.715936811293
1	959	409.042741774352	1.370727766186
1	963	410.754470061165	2.520901311269
1	967	410.982635296395	1.939893522043
1	971	412.050826679472	1.296356618307
1	983	414.078003647137	3.095368350742
1	993	417.473649214018	5.422822534546
1	1001	422.996096051213	8.918092404076
1	1007	427.867272289926	10.393623075908
1	1013	429.756262655836	6.760166604623
1	1017	431.910764879314	4.043492589388
1	1025	434.625487432875	4.869224777039
1	1031	440.599985495328	8.689220616014
1	1037	444.210277370229	9.584789937354
1	1043	444.695206677942	4.095221182614
1	1047	447.171214352631	2.960936982402
1	1053	447.666114877171	2.970908199229
1	1059	448.711560029594	1.540345676963
1	1067	450.70462552163	3.038510644459
1	1071	451.571413034875	2.859853005281
1	1077	453.479927387635	2.775301866005
1	1083	456.979242436234	5.407829401359
1	1089	458.12779291662	4.647865528985
1	1097	463.941458456392	6.962216020158
1	1101	468.043511686825	9.915718770205
1	1105	468.313707318178	4.372248861786
1	1109	470.095313677529	2.051801990704
1	1119	477.784177473838	9.47047015566
1	1125	484.571783413476	14.476469735947
1	1133	494.104937043809	16.320759569971
1	1137	496.595408008466	12.02362459499
1	1143	497.782348425797	3.677411381988
1	1149	498.841907089138	2.246499080672
1	1155	499.85185353567	2.069505109873
1	1163	501.447439276405	2.605532187267
1	1169	506.812583491836	6.960729956166
1	1175	513.017057801083	11.569618524678
1	1179	515.059531524388	8.246948032552
1	1187	517.346623700738	4.329565899655
1	1191	520.621538540118	5.56200701573
1	1199	524.208471644779	6.861847944041
1	1203	527.410288382433	6.788749842315
1	1207	528.21287109195	4.004399447171
1	1213	528.721441657609	1.311153275176
1	1223	534.103860002557	5.890988910607
1	1229	537.295967668289	8.57452601068
1	1233	537.781538887777	3.67767888522
1	1239	541.701248431382	4.405280763093
1	1243	541.964329695961	4.182790808184
1	1247	542.73446967416	1.033221242778
1	1255	543.673574375461	1.7092446795
1	1261	545.110835740432	2.376366066272
1	1269	547.650686094418	3.977111718957
1	1273	547.798805050752	2.68796931032
1	1279	550.372075485732	2.721389391314
1	1285	551.834766848019	4.035961797267
1	1295	556.022367371445	5.650291885713
1	1299	556.621239076284	4.786472228265
1	1307	559.997411745029	3.975044373584
1	1313	561.897618226369	5.276379150085
1	1317	563.808811370635	3.811399625606
1	1325	565.965488521019	4.06787029465
1	1331	581.760277874834	17.951466504199
1	1337	592.716233581434	26.750745060415
1	1341	597.29696491632	15.536687041486
1	1345	598.32060331297	5.604369731536
1	1353	601.184834167084	3.887869250764
1	1361	605.086026092483	6.765422779513
1	1365	605.37275127687	4.187917109786
1	1369	605.821620523924	0.735594431441
1	1377	607.492813581869	2.120062304999
1	1385	616.474147863498	10.652527339574
1	1391	620.812351255608	13.319537673739
1	1395	623.861239159481	7.387091295983
1	1403	628.518434379731	7.706083124123
1	1409	630.178632785444	6.317393625963
1	1415	631.433780303391	2.91534592366
1	1419	631.997661115401	1.819028329957
1	1427	636.447539532919	5.013759229528
1	1433	643.340496328761	11.34283521336
1	1439	647.766522572826	11.318983039907
1	1445	648.246662578863	4.906166250102
1	1449	648.823122953468	1.056600380642
1	1453	649.514727382907	1.268064804044
1	1461	657.407066946406	8.583943992938
1	1467	658.249817332952	8.735089950045
1	1475	662.572490318066	5.16542337166
1	1479	663.631153022348	5.381335689396
1	1487	672.217870564719	9.645380246653
1	1491	673.417358243097	9.786205220749
1	1499	685.0347849989	12.816914434181
1	1505	688.442508467143	15.025150224046
1	1509	688.837774129876	3.802989130976
1	1517	695.083007468869	6.640499001726
1	1521	698.921424202221	10.083650072345
1	1529	708.580445767185	13.497438298316
1	1533	710.156973279815	11.235549077594
1	1539	713.914931736142	5.334485968957
1	1547	722.331325070414	12.174351790599
1	1553	724.251186955782	10.33625521964
1	1557	727.550783432432	5.219458362018
1	1561	730.294082222968	6.042895267186
1	1567	733.201163186708	5.650379754276
1	1577	744.829012627053	14.534930404085
1	1583	747.234854074563	14.033690887855
1	1589	754.74523223194	9.916219604887
1	1595	765.136396153428	17.901542078865
1	1599	766.742675689349	11.997443457409
1	1603	768.617443842173	3.481047688745
1	1609	768.980864097413	2.238188408064
1	1613	769.183657524007	0.566213681834
1	1619	771.706772295756	2.725908198343
1	1625	772.851696846362	3.668039322355
1	1629	773.699593638706	1.99282134295
1	1639	775.671360727807	2.819663881445
1	1645	777.495545376568	3.795951737862
1	1653	781.228054179283	5.556693451476
1	1657	781.321973215366	3.826427838798
1	1665	782.744571385043	1.51651720576
1	1671	786.448298786182	5.126325570816
1	1679	788.286778103081	5.542206718038
1	1683	788.502239998952	2.05394121277
1	1689	790.982660367147	2.695882264066
1	1695	791.122394644352	2.6201546454
1	1703	803.859850810261	12.877190443114
1	1709	805.607142713443	14.484748069091
1	1713	806.941708331679	3.081857521418
1	1721	812.279625126368	6.672482412925
1	1727	815.554305655797	8.612597324118
1	1733	819.357732124054	7.078106997686
1	1739	822.12339238125	6.569086725453
1	1743	823.518264328643	4.160532204589
1	1747	825.20162158815	3.0782292069
1	1753	826.82833477508	3.310070446437
1	1759	828.695180266667	3.493558678517
1	1769	836.2100486216	9.38171384652
1	1775	839.189582028173	10.494401761506
1	1779	839.287014545078	3.076965923478
1	1783	841.200719947239	2.011137919066
1	1793	843.582723685448	4.29570914037
1	1797	843.784815295306	2.584095348067
1	1805	858.175670356215	14.592946670767
1	1811	860.654083364751	16.869268069445
1	1817	863.972597110107	5.796926753892
1	1823	870.73396130165	10.079877936899
1	1827	871.242757935911	7.270160825804
1	1831	871.737234476603	1.003273174953
1	1841	878.458105333309	7.215347397398
1	1845	879.870479263419	8.133244786816
1	1853	885.235299270859	6.77719393755
1	1857	885.249780281856	5.379301018437
1	1865	888.213614258519	2.97831498766
1	1869	888.694710680807	3.444930398951
1	1873	890.280310921448	2.066696662929
1	1879	892.796361871211	4.101651190404
1	1885	894.480919248165	4.200608326717
1	1893	898.803254518306	6.006892647095
1	1897	899.861450283933	5.380531035768
1	1907	909.588233565751	10.784979047445
1	1911	910.272998666809	10.411548382876
1	1917	913.076194296086	3.487960730335
1	1921	913.500292689293	3.227294022484
1	1931	920.80868646998	7.732492173894
1	1937	924.095701145708	10.595408456415
1	1943	929.519052719469	8.710366249489
1	1947	929.737970361062	5.642269215354
1	1951	931.333732779038	1.814680059569
1	1955	931.619929670836	1.881959309774
1	1967	935.998401034795	4.664668255757
1	1971	936.072277081996	4.45234741116
1	1979	938.631151070644	2.632750035849
1	1983	939.310413151537	3.238136069541
1	1987	939.320381969081	0.689230898437
1	1991	939.914000596116	0.603587444579
1	1995	940.311732463474	0.991350494393
1	2003	945.185575100627	5.271574504511
1	2013	948.021288970853	7.709556507379
1	2021	952.694638135839	7.509063035212
1	2025	955.416364689616	7.395075718763
1	2029	955.593334534314	2.898696398475
1	2039	958.733802086922	3.317437397306
1	2045	961.08110557537	5.487771041056
1	2051	965.871832234435	7.138030147513
1	2055	966.870141502875	5.789035927505
1	2063	975.597388292602	9.725556058167
1	2069	984.674217515614	17.804076012739
1	2073	985.467733636546	9.870345343944
1	2077	985.628134909136	0.953917393522
1	2083	987.325346454505	1.857612817959
1	2091	992.236304915675	6.608170006539
1	2095	992.694853543719	5.369507089214
1	2099	993.083799308175	0.8474943925
1	2103	993.102353203679	0.40749965996
1	2107	993.998778631519	0.914979323344
1	2115	995.052181290611	1.949828086932
2	272	100.527613309349	24
2	276	101.578124142961	25
2	278	102.712545525587	26
2	280	102.718505974666	27
2	282	103.819127251536	26
2	286	104.045749084789	25
2	290	104.209373779342	24
2	294	104.324406424701	25
2	296	105.973759193938	26
2	298	107.288667819614	27
2	300	114.698350894064	26
2	304	115.124495467925	27
2	306	117.989950471335	26
2	310	122.353487779438	27
2	312	123.881341869302	26
2	316	124.120882336677	27
2	318	126.463446069058	26
2	322	126.852080263616	25
2	326	127.669556234879	26
2	328	130.268992095934	27
2	330	131.021853254218	26
2	334	132.599264935257	25
2	338	133.157088878782	26
2	340	135.296831888042	25