version 3
run General-40-20221103-10:28:22-6760
attr configname General
attr datetime 20221103-10:28:22
attr datetimef 20221103-102822
attr experiment General
attr inifile block.ini
attr iterationvars "$0=4, $1=30"
attr iterationvarsd 4/30
attr iterationvarsf 4,30-
attr measurement "$0=4, $1=30"
attr network Block
attr processid 6760
attr repetition 0
attr replication #0
attr resultdir results
attr runnumber 40
attr seedset 40
config network Block
config repeat 5
config sim-time-limit 1000s
config warmup-period 100s
config **.alloca.resourceModuleName "\"risorse\""
config **.dealloca.resourceModuleName "\"risorse\""
config **.is.delay exponential(3s)
config **.servente.serviceTime exponential(4s)
config **.dealloca.resourceAmount 2
config **.alloca.resourceAmount 2
config **.risorse.amount 6
config **.sorgente.numJobs (30)
config **.result-recording-modes all

vector 0 Block.servente queueLength:vector ETV
attr interpolationmode sample-hold
attr recordingmode vector
attr title "queue length"
vector 1 Block.servente queueingTime:vector ETV
attr interpolationmode none
attr recordingmode vector
attr title "queueing time at dequeue"
attr unit s
vector 2 Block.alloca queueLength:vector ETV
attr interpolationmode sample-hold
attr recordingmode vector
attr title "queue length"
vector 3 Block.alloca queueingTime:vector ETV
attr interpolationmode none
attr recordingmode vector
attr title "queueing time at dequeue"
attr unit s
vector 4 Block.risorse amount:vector ETV
attr interpolationmode sample-hold
attr recordingmode vector
attr title "available resource"
vector 5 Block.is delayedJobs:vector ETV
attr interpolationmode sample-hold
attr recordingmode vector
attr title "number of delayed jobs"
0	221	110.923382746037	1
0	223	110.923382746037	2
0	225	111.262829880565	1
0	227	111.262829880565	2
0	233	114.227867966914	1
0	235	114.227867966914	2
0	239	115.388129919188	1
0	241	115.388129919188	2
0	245	120.342024880724	1
0	247	120.342024880724	2
0	249	120.587164899348	1
0	251	120.587164899348	2
0	255	123.983449822468	1
0	257	123.983449822468	2
0	263	130.573885576402	1
0	265	130.573885576402	2
0	267	133.26165859637	1
0	269	133.26165859637	2
0	273	134.372542770989	1
0	275	134.372542770989	2
0	279	137.015123724397	1
0	281	137.015123724397	2
0	283	137.016706540838	1
0	285	137.016706540838	2
0	291	139.827893766903	1
0	293	139.827893766903	2
0	297	145.331098103168	1
0	299	145.331098103168	2
0	301	146.552195443639	1
0	303	146.552195443639	2
0	307	148.043519129261	1
0	309	148.043519129261	2
0	317	165.997031836806	1
0	319	165.997031836806	2
0	321	167.320213314198	1
0	323	167.320213314198	2
0	327	168.042843379815	1
0	329	168.042843379815	2
0	335	177.077767470905	1
0	337	177.077767470905	2
0	339	180.99769265383	1
0	341	180.99769265383	2
0	345	183.560151185369	1
0	347	183.560151185369	2
0	349	184.313374918902	1
0	351	184.313374918902	2
0	359	190.67867130796	1
0	361	190.67867130796	2
0	365	194.4408991273	1
0	367	194.4408991273	2
0	369	195.173335350636	1
0	371	195.173335350636	2
0	373	195.383109538548	1
0	375	195.383109538548	2
0	383	197.832180934324	1
0	385	197.832180934324	2
0	389	199.4267023194	1
0	391	199.4267023194	2
0	395	201.474000622869	1
0	397	201.474000622869	2
0	399	201.625590622285	1
0	401	201.625590622285	2
0	407	218.509560736844	1
0	409	218.509560736844	2
0	411	219.61085690499	1
0	413	219.61085690499	2
0	415	220.319165089774	1
0	417	220.319165089774	2
0	421	221.789478799324	1
0	423	221.789478799324	2
0	425	222.16303170697	1
0	427	222.16303170697	2
0	435	223.950603134557	1
0	437	223.950603134557	2
0	439	223.985087982622	1
0	441	223.985087982622	2
0	447	231.308936075607	1
0	449	231.308936075607	2
0	453	232.454639260462	1
0	455	232.454639260462	2
0	461	242.55150926535	1
0	463	242.55150926535	2
0	465	246.826445021244	1
0	467	246.826445021244	2
0	471	247.708851103334	1
0	473	247.708851103334	2
0	475	248.53897559367	1
0	477	248.53897559367	2
0	479	248.814868506966	1
0	481	248.814868506966	2
0	491	275.231303603105	1
0	493	275.231303603105	2
0	495	275.826813474345	1
0	497	275.826813474345	2
0	501	279.211577775856	1
0	503	279.211577775856	2
0	509	287.266042443968	1
0	511	287.266042443968	2
0	513	287.968075210967	1
0	515	287.968075210967	2
0	517	288.22898587118	1
0	519	288.22898587118	2
0	521	288.327041495666	1
0	523	288.327041495666	2
0	531	295.136815405684	1
0	533	295.136815405684	2
0	535	295.607102553717	1
0	537	295.607102553717	2
0	543	299.075392600419	1
0	545	299.075392600419	2
0	549	300.349490601908	1
0	551	300.349490601908	2
0	557	313.063757907302	1
0	559	313.063757907302	2
0	563	317.211512471518	1
0	565	317.211512471518	2
0	569	322.01929006335	1
0	571	322.01929006335	2
0	573	322.124509260137	1
0	575	322.124509260137	2
0	581	333.050564135891	1
0	583	333.050564135891	2
0	585	336.191617461242	1
0	587	336.191617461242	2
0	593	338.892918416788	1
0	595	338.892918416788	2
0	599	345.194381364308	1
0	601	345.194381364308	2
0	603	346.760818767953	1
0	605	346.760818767953	2
0	609	349.951186147919	1
0	611	349.951186147919	2
0	615	353.713920258957	1
0	617	353.713920258957	2
0	619	354.416029200324	1
0	621	354.416029200324	2
0	625	355.017496447538	1
0	627	355.017496447538	2
0	631	356.634101075281	1
0	633	356.634101075281	2
0	639	358.711603990458	1
0	641	358.711603990458	2
0	643	361.228911891039	1
0	645	361.228911891039	2
0	649	363.25806521787	1
0	651	363.25806521787	2
0	657	366.550120486148	1
0	659	366.550120486148	2
0	661	367.971739764579	1
0	663	367.971739764579	2
0	665	368.017268078318	1
0	667	368.017268078318	2
0	673	369.757352479736	1
0	675	369.757352479736	2
0	683	374.895334492802	1
0	685	374.895334492802	2
0	687	382.362446223071	1
0	689	382.362446223071	2
0	695	389.427322092003	1
0	697	389.427322092003	2
0	701	396.064258819568	1
0	703	396.064258819568	2
0	707	397.301162256619	1
0	709	397.301162256619	2
0	711	398.930260662856	1
0	713	398.930260662856	2
0	719	403.810886197947	1
0	721	403.810886197947	2
0	723	404.1102903873	1
0	725	404.1102903873	2
0	727	404.324684386691	1
0	729	404.324684386691	2
0	737	407.908351986983	1
0	739	407.908351986983	2
0	743	420.445928915294	1
0	745	420.445928915294	2
0	749	424.339996675989	1
0	751	424.339996675989	2
0	753	425.623472475934	1
0	755	425.623472475934	2
0	761	429.412541951111	1
0	763	429.412541951111	2
0	767	433.65817409674	1
0	769	433.65817409674	2
0	773	436.120070990298	1
0	775	436.120070990298	2
0	779	444.978631162603	1
0	781	444.978631162603	2
0	783	445.440511398903	1
0	785	445.440511398903	2
0	787	445.782827861593	1
0	789	445.782827861593	2
0	791	447.616369939963	1
0	793	447.616369939963	2
0	803	454.549415470679	1
0	805	454.549415470679	2
0	809	456.585929062352	1
0	811	456.585929062352	2
0	815	461.868161379352	1
0	817	461.868161379352	2
0	821	463.58214273001	1
0	823	463.58214273001	2
0	827	473.461424503382	1
0	829	473.461424503382	2
0	833	481.170323869076	1
0	835	481.170323869076	2
0	839	500.083113529637	1
0	841	500.083113529637	2
0	843	501.879430566237	1
0	845	501.879430566237	2
0	847	503.223861787855	1
0	849	503.223861787855	2
0	853	506.821448444741	1
0	855	506.821448444741	2
0	863	523.014795306355	1
0	865	523.014795306355	2
0	869	529.383315127732	1
0	871	529.383315127732	2
0	875	531.559067443133	1
0	877	531.559067443133	2
0	881	539.183840457545	1
0	883	539.183840457545	2
0	887	541.594881080194	1
0	889	541.594881080194	2
0	893	543.287652814924	1
0	895	543.287652814924	2
0	899	549.598009451968	1
0	901	549.598009451968	2
0	903	549.927533686717	1
0	905	549.927533686717	2
0	909	550.857298794018	1
0	911	550.857298794018	2
0	917	554.114670024708	1
0	919	554.114670024708	2
0	923	561.890015769576	1
0	925	561.890015769576	2
0	927	562.366804354637	1
0	929	562.366804354637	2
0	935	568.962371065647	1
0	937	568.962371065647	2
0	941	574.047672942014	1
0	943	574.047672942014	2
0	947	579.304574148425	1
0	949	579.304574148425	2
0	953	590.511767383485	1
0	955	590.511767383485	2
0	957	590.71666198196	1
0	959	590.71666198196	2
0	963	591.026440638493	1
0	965	591.026440638493	2
0	967	591.328790356718	1
0	969	591.328790356718	2
0	977	603.549438020571	1
0	979	603.549438020571	2
0	981	604.024587878373	1
0	983	604.024587878373	2
0	989	607.802778236944	1
0	991	607.802778236944	2
0	993	609.188788999308	1
0	995	609.188788999308	2
0	1001	613.483174050822	1
0	1003	613.483174050822	2
0	1007	634.289979479718	1
0	1009	634.289979479718	2
0	1013	646.080580655852	1
0	1015	646.080580655852	2
0	1017	648.810867104118	1
0	1019	648.810867104118	2
0	1023	651.210867984322	1
0	1025	651.210867984322	2
0	1029	652.056639900773	1
0	1031	652.056639900773	2
0	1035	655.646340303008	1
0	1037	655.646340303008	2
0	1043	661.765984618822	1
0	1045	661.765984618822	2
0	1047	663.834962449212	1
0	1049	663.834962449212	2
0	1055	668.715746992909	1
0	1057	668.715746992909	2
0	1061	669.223487675159	1
0	1063	669.223487675159	2
0	1067	670.112792647973	1
0	1069	670.112792647973	2
0	1071	670.265814703952	1
0	1073	670.265814703952	2
0	1077	673.604231337422	1
0	1079	673.604231337422	2
0	1081	673.946233738034	1
0	1083	673.946233738034	2
0	1087	677.270113205861	1
0	1089	677.270113205861	2
0	1095	680.389788359237	1
0	1097	680.389788359237	2
0	1099	680.483312931967	1
0	1101	680.483312931967	2
0	1107	684.736448331073	1
0	1109	684.736448331073	2
0	1113	685.471450500886	1
0	1115	685.471450500886	2
0	1119	686.481646390366	1
0	1121	686.481646390366	2
0	1127	698.60841183545	1
0	1129	698.60841183545	2
0	1131	699.539063935524	1
0	1133	699.539063935524	2
0	1137	704.813388736118	1
0	1139	704.813388736118	2
0	1145	721.591992003237	1
0	1147	721.591992003237	2
0	1151	727.251653694883	1
0	1153	727.251653694883	2
0	1155	727.523643805053	1
0	1157	727.523643805053	2
0	1163	736.558211224271	1
0	1165	736.558211224271	2
0	1169	743.981677520763	1
0	1171	743.981677520763	2
0	1175	746.582021390368	1
0	1177	746.582021390368	2
0	1181	756.917562376501	1
0	1183	756.917562376501	2
0	1187	758.176832674687	1
0	1189	758.176832674687	2
0	1193	764.864049211327	1
0	1195	764.864049211327	2
0	1199	767.854598018121	1
0	1201	767.854598018121	2
0	1205	768.184819513413	1
0	1207	768.184819513413	2
0	1211	769.824392383022	1
0	1213	769.824392383022	2
0	1215	770.959823125567	1
0	1217	770.959823125567	2
0	1223	772.192921355078	1
0	1225	772.192921355078	2
0	1229	778.832253965361	1
0	1231	778.832253965361	2
0	1235	786.403158385586	1
0	1237	786.403158385586	2
0	1241	794.241754744379	1
0	1243	794.241754744379	2
0	1247	795.04100057684	1
0	1249	795.04100057684	2
0	1251	795.584135798049	1
0	1253	795.584135798049	2
0	1255	795.849737849223	1
0	1257	795.849737849223	2
0	1263	799.90094957567	1
0	1265	799.90094957567	2
0	1267	800.84611566143	1
0	1269	800.84611566143	2
0	1273	801.844383849156	1
0	1275	801.844383849156	2
0	1279	804.11730266022	1
0	1281	804.11730266022	2
0	1283	805.063143914995	1
0	1285	805.063143914995	2
0	1287	806.196770761645	1
0	1289	806.196770761645	2
0	1299	809.593973195175	1
0	1301	809.593973195175	2
0	1303	809.851823604594	1
0	1305	809.851823604594	2
0	1307	810.687243852112	1
0	1309	810.687243852112	2
0	1315	813.04014385066	1
0	1317	813.04014385066	2
0	1323	815.32701949431	1
0	1325	815.32701949431	2
0	1329	817.204399245287	1
0	1331	817.204399245287	2
0	1333	817.312903381011	1
0	1335	817.312903381011	2
0	1339	818.322575205952	1
0	1341	818.322575205952	2
0	1345	820.180999015742	1
0	1347	820.180999015742	2
0	1353	823.657248547957	1
0	1355	823.657248547957	2
0	1359	825.452635093299	1
0	1361	825.452635093299	2
0	1363	826.05842187342	1
0	1365	826.05842187342	2
0	1369	829.273421286393	1
0	1371	829.273421286393	2
0	1373	830.642642049131	1
0	1375	830.642642049131	2
0	1383	833.105752460658	1
0	1385	833.105752460658	2
0	1391	839.287363240438	1
0	1393	839.287363240438	2
0	1397	852.800498021026	1
0	1399	852.800498021026	2
0	1403	867.223449968417	1
0	1405	867.223449968417	2
0	1409	874.035377504533	1
0	1411	874.035377504533	2
0	1413	874.080218417769	1
0	1415	874.080218417769	2
0	1417	874.26296180613	1
0	1419	874.26296180613	2
0	1427	883.699621778047	1
0	1429	883.699621778047	2
0	1431	887.025582603964	1
0	1433	887.025582603964	2
0	1439	893.069752738671	1
0	1441	893.069752738671	2
0	1445	897.045778276282	1
0	1447	897.045778276282	2
0	1449	897.289402040393	1
0	1451	897.289402040393	2
0	1455	899.842612043882	1
0	1457	899.842612043882	2
0	1461	901.081735144437	1
0	1463	901.081735144437	2
0	1469	904.650479382925	1
0	1471	904.650479382925	2
0	1475	908.955731294103	1
0	1477	908.955731294103	2
0	1481	911.990797184831	1
0	1483	911.990797184831	2
0	1487	915.982457554597	1
0	1489	915.982457554597	2
0	1493	917.355585454381	1
0	1495	917.355585454381	2
0	1497	920.555522020068	1
0	1499	920.555522020068	2
0	1505	931.132708255815	1
0	1507	931.132708255815	2
0	1511	939.060731366578	1
0	1513	939.060731366578	2
0	1517	944.336147111986	1
0	1519	944.336147111986	2
0	1521	945.824855329444	1
0	1523	945.824855329444	2
0	1527	947.087944265619	1
0	1529	947.087944265619	2
0	1535	951.206111354421	1
0	1537	951.206111354421	2
0	1541	958.991942216224	1
0	1543	958.991942216224	2
0	1547	965.5388403753	1
0	1549	965.5388403753	2
0	1551	966.828870357328	1
0	1553	966.828870357328	2
0	1557	970.82955730624	1
0	1559	970.82955730624	2
0	1563	973.624126822052	1
0	1565	973.624126822052	2
0	1571	977.67149404221	1
0	1573	977.67149404221	2
0	1577	981.677905893335	1
0	1579	981.677905893335	2
0	1581	981.886792764913	1
0	1583	981.886792764913	2
0	1589	984.007822976625	1
0	1591	984.007822976625	2
0	1595	988.236147186265	1
0	1597	988.236147186265	2
0	1599	994.732716000236	1
0	1601	994.732716000236	2
0	1605	997.017568936229	1
0	1607	997.017568936229	2
0	1613	998.157680453408	1
0	1615	998.157680453408	2
1	221	110.923382746037	22.378300291192
1	225	111.262829880565	15.72046393416
1	233	114.227867966914	3.304485220877
1	239	115.388129919188	4.125300038623
1	245	120.342024880724	6.11415691381
1	249	120.587164899348	5.19903498016
1	255	123.983449822468	3.641424941744
1	263	130.573885576402	9.986720677054
1	267	133.26165859637	9.278208773902
1	273	134.372542770989	3.798657194587
1	279	137.015123724397	3.753465128027
1	283	137.016706540838	2.644163769849
1	291	139.827893766903	2.812770042506
1	297	145.331098103168	8.31439156233
1	301	146.552195443639	6.724301676736
1	307	148.043519129261	2.712421026093
1	317	165.997031836806	19.444836393167
1	321	167.320213314198	19.276694184937
1	327	168.042843379815	2.045811543009
1	335	177.077767470905	9.757554156707
1	339	180.99769265383	12.954849274015
1	345	183.560151185369	6.482383714464
1	349	184.313374918902	3.315682265072
1	359	190.67867130796	7.118520122591
1	365	194.4408991273	10.127524208398
1	369	195.173335350636	4.494664042676
1	373	195.383109538548	0.942210411248
1	383	197.832180934324	2.658845583688
1	389	199.4267023194	4.043592780852
1	395	201.474000622869	3.641819688545
1	399	201.625590622285	2.198888302885
1	407	218.509560736844	17.035560113975
1	411	219.61085690499	17.985266282705
1	415	220.319165089774	1.80960435293
1	421	221.789478799324	2.178621894334
1	425	222.16303170697	1.843866617196
1	435	223.950603134557	2.161124335233
1	439	223.985087982622	1.822056275652
1	447	231.308936075607	7.35833294105
1	453	232.454639260462	8.46955127784
1	461	242.55150926535	11.242573189743
1	465	246.826445021244	14.371805760782
1	471	247.708851103334	5.157341837984
1	475	248.53897559367	1.712530572426
1	479	248.814868506966	1.106017403632
1	491	275.231303603105	26.692328009435
1	495	275.826813474345	27.011944967379
1	501	279.211577775856	3.980274172751
1	509	287.266042443968	11.439228969623
1	513	287.968075210967	8.756497435111
1	517	288.22898587118	0.962943427212
1	521	288.327041495666	0.358966284699
1	531	295.136815405684	6.907829534504
1	535	295.607102553717	7.280061058051
1	543	299.075392600419	3.938577194735
1	549	300.349490601908	4.742388048191
1	557	313.063757907302	13.988365306883
1	563	317.211512471518	16.86202186961
1	569	322.01929006335	8.955532156048
1	573	322.124509260137	4.912996788619
1	581	333.050564135891	11.031274072541
1	585	336.191617461242	14.067108201105
1	593	338.892918416788	5.842354280897
1	599	345.194381364308	9.002763903066
1	603	346.760818767953	7.867900351165
1	609	349.951186147919	4.756804783611
1	615	353.713920258957	6.953101491004
1	619	354.416029200324	4.464843052405
1	625	355.017496447538	1.303576188581
1	631	356.634101075281	2.218071874957
1	639	358.711603990458	3.69410754292
1	643	361.228911891039	4.594810815758
1	649	363.25806521787	4.546461227412
1	657	366.550120486148	5.321208595109
1	661	367.971739764579	4.713674546709
1	665	368.017268078318	1.46714759217
1	673	369.757352479736	1.785612715157
1	683	374.895334492802	6.878066414484
1	687	382.362446223071	12.605093743335
1	695	389.427322092003	14.531987599201
1	701	396.064258819568	13.701812596497
1	707	397.301162256619	7.873840164616
1	711	398.930260662856	2.866001843288
1	719	403.810886197947	6.509723941328
1	723	404.1102903873	5.180029724444
1	727	404.324684386691	0.513798188744
1	737	407.908351986983	3.798061599683
1	743	420.445928915294	16.121244528603
1	749	424.339996675989	16.431644689006
1	753	425.623472475934	5.17754356064
1	761	429.412541951111	5.072545275122
1	767	433.65817409674	8.034701620806
1	773	436.120070990298	6.707529039187
1	779	444.978631162603	11.320457065863
1	783	445.440511398903	9.320440408605
1	787	445.782827861593	0.80419669899
1	791	447.616369939963	2.17585854106
1	803	454.549415470679	8.766587609086
1	809	456.585929062352	8.969559122389
1	815	461.868161379352	7.318745908673
1	821	463.58214273001	6.996213667658
1	827	473.461424503382	11.59326312403
1	833	481.170323869076	17.588181139066
1	839	500.083113529637	26.621689026255
1	843	501.879430566237	20.709106697161
1	847	503.223861787855	3.140748258218
1	853	506.821448444741	4.942017878504
1	863	523.014795306355	19.7909335185
1	869	529.383315127732	22.561866682991
1	875	531.559067443133	8.544272136778
1	881	539.183840457545	9.800525329813
1	887	541.594881080194	10.035813637061
1	893	543.287652814924	4.103812357379
1	899	549.598009451968	8.003128371774
1	903	549.927533686717	6.639880871793
1	909	550.857298794018	1.25928934205
1	917	554.114670024708	4.187136337991
1	923	561.890015769576	11.032716975558
1	927	562.366804354637	8.252134329929
1	935	568.962371065647	7.072355296071
1	941	574.047672942014	11.680868587377
1	947	579.304574148425	10.342203082778
1	953	590.511767383485	16.464094441471
1	957	590.71666198196	11.412087833535
1	963	591.026440638493	0.514673255008
1	967	591.328790356718	0.612128374758
1	977	603.549438020571	12.522997382078
1	981	604.024587878373	12.695797521655
1	989	607.802778236944	4.253340216373
1	993	609.188788999308	5.164201120935
1	1001	613.483174050822	5.680395813878
1	1007	634.289979479718	25.10119048041
1	1013	646.080580655852	32.59740660503
1	1017	648.810867104118	14.5208876244
1	1023	651.210867984322	5.13028732847
1	1029	652.056639900773	3.245772796655
1	1035	655.646340303008	4.435472318686
1	1043	661.765984618822	9.709344718049
1	1047	663.834962449212	8.188622146204
1	1055	668.715746992909	6.949762374087
1	1061	669.223487675159	5.388525225947
1	1067	670.112792647973	1.397045655064
1	1071	670.265814703952	1.042327028793
1	1077	673.604231337422	3.491438689449
1	1081	673.946233738034	3.680419034082
1	1087	677.270113205861	3.665881868439
1	1095	680.389788359237	6.443554621203
1	1099	680.483312931967	3.213199726106
1	1107	684.736448331073	4.346659971836
1	1113	685.471450500886	4.988137568919
1	1119	686.481646390366	1.745198059293
1	1127	698.60841183545	13.136961334564
1	1131	699.539063935524	13.057417545158
1	1137	704.813388736118	6.204976900668
1	1145	721.591992003237	22.052928067713
1	1151	727.251653694883	22.438264958765
1	1155	727.523643805053	5.931651801816
1	1163	736.558211224271	9.306557529388
1	1169	743.981677520763	16.45803371571
1	1175	746.582021390368	10.023810166097
1	1181	756.917562376501	12.935884855738
1	1187	758.176832674687	11.594811284319
1	1193	764.864049211327	7.946486834826
1	1199	767.854598018121	9.677765343434
1	1205	768.184819513413	3.320770302086
1	1211	769.824392383022	1.969794364901
1	1215	770.959823125567	2.775003612154
1	1223	772.192921355078	2.368528972056
1	1229	778.832253965361	7.872430839794
1	1235	786.403158385586	14.210237030508
1	1241	794.241754744379	15.409500779018
1	1247	795.04100057684	8.637842191254
1	1251	795.584135798049	1.34238105367
1	1255	795.849737849223	0.808737272383
1	1263	799.90094957567	4.316813777621
1	1267	800.84611566143	4.996377812207
1	1273	801.844383849156	1.943434273486
1	1279	804.11730266022	3.27118699879
1	1283	805.063143914995	3.218760065839
1	1287	806.196770761645	2.079468101425
1	1299	809.593973195175	4.53082928018
1	1303	809.851823604594	3.655052842949
1	1307	810.687243852112	1.093270656937
1	1315	813.04014385066	3.188320246066
1	1323	815.32701949431	4.639775642198
1	1329	817.204399245287	4.164255394627
1	1333	817.312903381011	1.985883886701
1	1339	818.322575205952	1.118175960665
1	1345	820.180999015742	2.868095634731
1	1353	823.657248547957	5.334673342005
1	1359	825.452635093299	5.271636077557
1	1363	826.05842187342	2.401173325463
1	1369	829.273421286393	3.820786193094
1	1373	830.642642049131	4.584220175711
1	1383	833.105752460658	3.832331174265
1	1391	839.287363240438	8.644721191307
1	1397	852.800498021026	19.694745560368
1	1403	867.223449968417	27.936086727979
1	1409	874.035377504533	21.234879483507
1	1413	874.080218417769	6.856768449352
1	1417	874.26296180613	0.227584301597
1	1427	883.699621778047	9.619403360278
1	1431	887.025582603964	12.762620797834
1	1439	893.069752738671	9.370130960624
1	1445	897.045778276282	10.020195672318
1	1449	897.289402040393	4.219649301722
1	1455	899.842612043882	2.7968337676
1	1461	901.081735144437	3.792333104044
1	1469	904.650479382925	4.807867339043
1	1475	908.955731294103	7.873996149666
1	1481	911.990797184831	7.340317801906
1	1487	915.982457554597	7.026726260494
1	1493	917.355585454381	5.36478826955
1	1497	920.555522020068	4.573064465471
1	1505	931.132708255815	13.777122801434
1	1511	939.060731366578	18.50520934651
1	1517	944.336147111986	13.203438856171
1	1521	945.824855329444	6.764123962866
1	1527	947.087944265619	2.751797153633
1	1535	951.206111354421	5.381256024977
1	1541	958.991942216224	11.903997950605
1	1547	965.5388403753	14.332729020879
1	1551	966.828870357328	7.836928141104
1	1557	970.82955730624	5.29071693094
1	1563	973.624126822052	6.795256464724
1	1571	977.67149404221	6.84193673597
1	1577	981.677905893335	8.053779071283
1	1581	981.886792764913	4.215298722703
1	1589	984.007822976625	2.32991708329
1	1595	988.236147186265	6.349354421352
1	1599	994.732716000236	10.724893023611
1	1605	997.017568936229	8.781421749964
1	1613	998.157680453408	3.424964453172
2	222	110.923382746037	26
2	226	111.262829880565	25
2	230	111.546231706371	26
2	232	112.790218457425	27
2	234	114.227867966914	26
2	238	115.051329319534	27
2	240	115.388129919188	26
2	244	115.500160488445	27
2	246	120.342024880724	26
2	250	120.587164899348	25
2	254	122.863799386829	26
2	256	123.983449822468	25
2	260	124.575347688975	26
2	262	128.269864702731	27
2	264	130.573885576402	26
2	268	133.26165859637	25
2	272	134.216739621008	26
2	274	134.372542770989	25
2	278	134.467212996134	26
2	280	137.015123724397	25
2	284	137.016706540838	24
2	288	137.080692755577	25
2	290	139.63787434842	26
2	292	139.827893766903	25
2	296	140.605490331441	26
2	298	145.331098103168	25
2	302	146.552195443639	24
2	306	147.046850287106	25
2	308	148.043519129261	24
2	312	151.97091840947	25
2	314	155.537511047746	26
2	316	157.09876429666	27
2	318	165.997031836806	26
2	322	167.320213314198	25
2	326	167.969083506983	26
2	328	168.042843379815	25
2	332	168.114668695796	26
2	334	168.259409715711	27
2	336	177.077767470905	26
2	340	180.99769265383	25
2	344	182.487112422688	26
2	346	183.560151185369	25
2	350	184.313374918902	24
2	354	184.875636710549	25
2	356	184.880565951044	26
2	358	185.133762412282	27
2	360	190.67867130796	26
2	364	191.104555135171	27
2	366	194.4408991273	26
2	370	195.173335350636	25
2	374	195.383109538548	24
2	378	196.423266069063	25
2	380	196.580829935676	26
2	382	197.214602713475	27
2	384	197.832180934324	26
2	388	197.981646097968	27
2	390	199.4267023194	26
2	394	200.316264983286	27
2	396	201.474000622869	26
2	400	201.625590622285	25
2	404	201.903100222228	26
2	406	209.092480833851	27
2	408	218.509560736844	26
2	412	219.61085690499	25
2	416	220.319165089774	24
2	420	221.357683378252	25
2	422	221.789478799324	24
2	426	222.16303170697	23
2	430	222.213868397337	24
2	432	223.785730842055	25
2	434	223.842590153821	26
2	436	223.950603134557	25
2	440	223.985087982622	24
2	444	224.8002806504	25
2	446	230.342302236238	26
2	448	231.308936075607	25
2	452	231.686310313105	26
2	454	232.454639260462	25
2	458	232.696478434888	26
2	460	233.471055537095	27
2	462	242.55150926535	26
2	466	246.826445021244	25
2	470	246.862912193103	26
2	472	247.708851103334	25
2	476	248.53897559367	24
2	480	248.814868506966	23
2	484	248.969624385267	24
2	486	249.294505009793	25
2	488	249.31691413764	26
2	490	251.817077745708	27
2	492	275.231303603105	26
2	496	275.826813474345	25
2	500	277.056121642451	26
2	502	279.211577775856	25
2	506	280.752548716654	26
2	508	281.035677248279	27
2	510	287.266042443968	26
2	514	287.968075210967	25
2	518	288.22898587118	24
2	522	288.327041495666	23
2	526	288.784420497853	24
2	528	289.419488390523	25
2	530	290.489494348951	26
2	532	295.136815405684	25
2	536	295.607102553717	24
2	540	296.305230194923	25
2	542	297.645836400497	26
2	544	299.075392600419	25
2	548	299.503803442968	26
2	550	300.349490601908	25
2	554	301.178434353129	26
2	556	306.619426643394	27
2	558	313.063757907302	26
2	562	313.422527569362	27
2	564	317.211512471518	26
2	568	319.440117716865	27
2	570	322.01929006335	26
2	574	322.124509260137	25
2	578	322.724426779442	26
2	580	323.021061689987	27
2	582	333.050564135891	26
2	586	336.191617461242	25
2	590	336.346690185904	26
2	592	338.391303890174	27
2	594	338.892918416788	26
2	598	339.918707047169	27
2	600	345.194381364308	26
2	604	346.760818767953	25
2	608	348.91596759646	26
2	610	349.951186147919	25
2	614	349.963886097992	26
2	616	353.713920258957	25
2	620	354.416029200324	24
2	624	354.450835744641	25
2	626	355.017496447538	24
2	630	356.2716216302	25
2	632	356.634101075281	24
2	636	356.886876998993	25
2	638	358.187313729976	26
2	640	358.711603990458	25
2	644	361.228911891039	24
2	648	362.832864569529	25
2	650	363.25806521787	24
2	654	365.087238677702	25
2	656	365.756664723864	26
2	658	366.550120486148	25
2	662	367.971739764579	24
2	666	368.017268078318	23
2	670	368.469172729375	24
2	672	368.824178542462	25
2	674	369.757352479736	24
2	678	370.683413282169	25
2	680	372.327190568356	26
2	682	374.701795487983	27
2	684	374.895334492802	26
2	688	382.362446223071	25
2	692	385.452990272535	26
2	694	387.040585771626	27
2	696	389.427322092003	26
2	700	392.336246947988	27
2	702	396.064258819568	26
2	706	396.215958363157	27
2	708	397.301162256619	26
2	712	398.930260662856	25
2	716	399.827561530593	26
2	718	400.042487306961	27
2	720	403.810886197947	26
2	724	404.1102903873	25
2	728	404.324684386691	24
2	732	405.20606160634	25
2	734	405.254259465579	26
2	736	406.821744081548	27
2	738	407.908351986983	26
2	742	407.909632254971	27
2	744	420.445928915294	26
2	748	421.136463058725	27
2	750	424.339996675989	26
2	754	425.623472475934	25
2	758	425.75628421122	26
2	760	427.700859211997	27
2	762	429.412541951111	26
2	766	431.137187478147	27
2	768	433.65817409674	26
2	772	435.311620606386	27
2	774	436.120070990298	26
2	778	437.154319736463	27
2	780	444.978631162603	26
2	784	445.440511398903	25
2	788	445.782827861593	24
2	792	447.616369939963	23
2	796	447.633982673115	24
2	798	448.110830695265	25
2	800	448.357793127569	26
2	802	451.526168971274	27
2	804	454.549415470679	26
2	808	454.80874260582	27
2	810	456.585929062352	26
2	814	458.768281558763	27
2	816	461.868161379352	26
2	820	462.823040095115	27
2	822	463.58214273001	26
2	826	465.879968022577	27
2	828	473.461424503382	26
2	832	473.833621089529	27
2	834	481.170323869076	26
2	838	486.204099788724	27
2	840	500.083113529637	26
2	844	501.879430566237	25
2	848	503.223861787855	24
2	852	504.054126500551	25
2	854	506.821448444741	24
2	858	507.63709197387	25
2	860	510.791922987475	26
2	862	516.469279320811	27
2	864	523.014795306355	26
2	868	523.170906075006	27
2	870	529.383315127732	26
2	874	530.398727113633	27
2	876	531.559067443133	26
2	880	536.668932724947	27
2	882	539.183840457545	26
2	886	541.022250400117	27
2	888	541.594881080194	26
2	892	543.197999143227	27
2	894	543.287652814924	26
2	898	544.218553822679	27
2	900	549.598009451968	26
2	904	549.927533686717	25
2	908	550.057169392324	26
2	910	550.857298794018	25
2	914	552.462893280137	26
2	916	553.614019427166	27
2	918	554.114670024708	26
2	922	556.00552075456	27
2	924	561.890015769576	26
2	928	562.366804354637	25
2	932	563.381402132474	26
2	934	563.500549234194	27
2	936	568.962371065647	26
2	940	570.189592647685	27
2	942	574.047672942014	26
2	946	574.273452369865	27
2	948	579.304574148425	26
2	952	582.82296578824	27
2	954	590.511767383485	26
2	958	590.71666198196	25
2	962	590.905835110183	26
2	964	591.026440638493	25
2	968	591.328790356718	24
2	972	591.367961095613	25
2	974	593.510473138714	26
2	976	596.909567050374	27
2	978	603.549438020571	26
2	982	604.024587878373	25
2	986	604.741123268253	26
2	988	606.798607114986	27
2	990	607.802778236944	26
2	994	609.188788999308	25
2	998	610.088768188556	26
2	1000	610.828221599316	27
2	1002	613.483174050822	26
2	1006	613.663628267635	27
2	1008	634.289979479718	26
2	1012	635.323507208015	27
2	1014	646.080580655852	26
2	1018	648.810867104118	25
2	1022	649.99624969149	26
2	1024	651.210867984322	25
2	1028	651.5946647793	26
2	1030	652.056639900773	25
2	1034	654.151799499754	26
2	1036	655.646340303008	25
2	1040	657.539596418752	26
2	1042	657.880349498605	27
2	1044	661.765984618822	26
2	1048	663.834962449212	25
2	1052	668.352639546734	26
2	1054	668.4696506171	27
2	1056	668.715746992909	26
2	1060	669.033548967345	27
2	1062	669.223487675159	26
2	1066	670.00601491468	27
2	1068	670.112792647973	26
2	1072	670.265814703952	25
2	1076	672.358975196134	26
2	1078	673.604231337422	25
2	1082	673.946233738034	24
2	1086	674.473442499826	25
2	1088	677.270113205861	24
2	1092	677.695289016494	25