version 3
run General-0-20221103-11:07:17-4724
attr configname General
attr datetime 20221103-11:07:17
attr datetimef 20221103-110717
attr experiment General
attr inifile block.ini
attr iterationvars "$0=2, $1=10"
attr iterationvarsd 2/10
attr iterationvarsf 2,10-
attr measurement "$0=2, $1=10"
attr network Block
attr processid 4724
attr repetition 0
attr replication #0
attr resultdir results
attr runnumber 0
attr seedset 0
config network Block
config repeat 5
config sim-time-limit 1000s
config warmup-period 100s
config **.alloca.resourceModuleName "\"risorse\""
config **.dealloca.resourceModuleName "\"risorse\""
config **.is.delay exponential(3s)
config **.servente.serviceTime exponential(2s)
config **.dealloca.resourceAmount 2
config **.alloca.resourceAmount 2
config **.risorse.amount 6
config **.sorgente.numJobs (10)
config **.result-recording-modes all

vector 0 Block.is delayedJobs:vector ETV
attr interpolationmode sample-hold
attr recordingmode vector
attr title "number of delayed jobs"
vector 1 Block.alloca queueLength:vector ETV
attr interpolationmode sample-hold
attr recordingmode vector
attr title "queue length"
vector 2 Block.servente queueLength:vector ETV
attr interpolationmode sample-hold
attr recordingmode vector
attr title "queue length"
vector 3 Block.servente queueingTime:vector ETV
attr interpolationmode none
attr recordingmode vector
attr title "queueing time at dequeue"
attr unit s
vector 4 Block.alloca queueingTime:vector ETV
attr interpolationmode none
attr recordingmode vector
attr title "queueing time at dequeue"
attr unit s
vector 5 Block.risorse amount:vector ETV
attr interpolationmode sample-hold
attr recordingmode vector
attr title "available resource"
0	339	100.3442494445	0
0	344	107.888221999704	1
0	345	108.764463599506	0
0	350	109.632053706955	1
0	354	110.702183061122	2
0	355	111.515878449928	1
0	357	111.543014086559	0
0	362	111.989745064327	1
0	363	112.509127432765	0
0	368	113.943473212468	1
0	369	114.294339441845	0
0	374	114.768475672313	1
0	378	117.01481227538	2
0	379	117.460949083136	1
0	384	117.777923962128	2
0	385	117.972692263762	1
0	387	118.43456575165	0
0	392	120.791194628673	1
0	393	122.171236501894	0
0	398	126.765574412377	1
0	402	128.938113174134	2
0	406	128.965442330996	3
0	407	129.244547818709	2
0	412	130.915646199309	3
0	413	131.218750525236	2
0	415	131.926569385527	1
0	420	133.155274930817	2
0	421	134.424899088849	1
0	426	140.302451675506	2
0	427	142.199461464693	1
0	429	144.40236930957	0
0	434	144.51309427709	1
0	438	145.938261463756	2
0	442	146.052915316604	3
0	446	147.252809089886	4
0	450	147.293189346178	5
0	451	147.372737987061	4
0	453	148.290420069069	3
0	458	148.458946123912	4
0	459	148.72369695446	3
0	461	148.843116419846	2
0	463	150.085651133061	1
0	465	155.798876130602	0
0	470	156.242086369603	1
0	474	157.132925293443	2
0	475	157.295614637747	1
0	477	157.512091202719	0
0	482	158.44421786217	1
0	483	159.592320708755	0
0	488	160.777964915267	1
0	489	162.382618042538	0
0	494	165.02643930927	1
0	495	165.225331513717	0
0	500	170.03426287544	1
0	504	170.523053771604	2
0	508	172.188740803736	3
0	509	173.031346367515	2
0	511	173.113985324029	1
0	513	173.571831456636	0
0	518	176.19522184875	1
0	522	177.617717723184	2
0	523	177.913668648439	1
0	525	178.417498700091	0
0	530	182.588882437138	1
0	531	185.162569360361	0
0	536	187.669491453055	1
0	540	187.843032417734	2
0	544	188.493713248792	3
0	548	188.51251475012	4
0	549	188.936506890802	3
0	551	188.99371306003	2
0	553	191.796250979065	1
0	558	192.207170052124	2
0	562	194.290731360483	3
0	563	195.315693861561	2
0	565	195.617259239084	1
0	567	195.986971482451	0
0	572	197.973296303457	1
0	573	198.580347619159	0
0	578	198.588331750982	1
0	582	199.602731997495	2
0	583	199.663669373882	1
0	588	201.212326797098	2
0	589	201.23771887686	1
0	594	201.572831301068	2
0	595	201.586950922545	1
0	600	202.496293093157	2
0	604	202.812976105618	3
0	605	203.757141088182	2
0	610	204.499142169915	3
0	611	205.894195519074	2
0	613	206.509550014337	1
0	618	206.932159476788	2
0	622	207.612852953258	3
0	623	208.470915870782	2
0	625	208.485415791166	1
0	630	208.748661260219	2
0	631	211.323840163706	1
0	636	211.570710078808	2
0	640	212.579397691984	3
0	641	214.260482691166	2
0	643	215.127060126677	1
0	645	216.757589009932	0
0	650	217.106864843706	1
0	651	217.864124822379	0
0	656	219.144182303744	1
0	660	223.587196100692	2
0	661	225.365068183049	1
0	666	225.866412027758	2
0	670	227.059170816417	3
0	671	228.301027274397	2
0	673	230.665886518157	1
0	675	231.486791667329	0
0	680	234.745183982904	1
0	684	234.992237277628	2
0	685	235.804244382726	1
0	690	237.905874394756	2
0	694	238.967319387989	3
0	695	239.42093063802	2
0	697	240.035003891266	1
0	702	241.217883421676	2
0	706	241.792704373816	3
0	710	242.54418205863	4
0	711	243.829490900655	3
0	713	245.355817576193	2
0	715	246.082330859564	1
0	717	248.197195723766	0
0	722	249.272922964732	1
0	726	251.048645785605	2
0	727	253.136044168306	1
0	729	253.148650771134	0
0	734	253.204315553878	1
0	738	254.72805109647	2
0	742	255.252165579821	3
0	746	256.256787176343	4
0	747	256.906353550224	3
0	749	257.826442128406	2
0	754	258.185694307331	3
0	755	258.243833651375	2
0	757	259.053995817563	1
0	762	259.473903723976	2
0	763	260.550685371585	1
0	768	260.744159155238	2
0	769	262.580720626853	1
0	774	263.262246189766	2
0	778	263.941575654931	3
0	779	263.982119751205	2
0	781	264.29004506386	1
0	786	264.90884702811	2
0	787	266.588730238332	1
0	789	266.828700822244	0
0	794	267.674805441184	1
0	795	268.111527376528	0
0	800	271.889700651085	1
0	804	272.106794848075	2
0	808	272.300640357229	3
0	809	272.952373047821	2
0	814	273.174696384777	3
0	815	274.638460265848	2
0	820	274.779800356294	3
0	824	274.84820719301	4
0	825	274.981827592146	3
0	827	275.736935591706	2
0	829	277.956828512438	1
0	831	278.015756018989	0
0	836	281.793278151575	1
0	840	282.567538335873	2
0	844	283.067701325828	3
0	848	283.372288576337	4
0	849	283.487109654937	3
0	854	283.576929806042	4
0	855	284.442219977703	3
0	857	285.089673230622	2
0	859	289.37344031395	1
0	861	290.251673777718	0
0	866	291.852549327063	1
0	870	292.45568115351	2
0	874	293.995834872603	3
0	875	294.312672803489	2
0	880	295.183981869251	3
0	884	295.393745540452	4
0	885	296.106739639522	3
0	890	296.26243685234	4
0	891	296.775242060843	3
0	896	297.529362087785	4
0	897	298.014972347922	3
0	899	299.151568115187	2
0	904	301.20882765794	3
0	905	302.741828259501	2
0	910	305.909182237441	3
0	914	305.985748063211	4
0	915	306.441158962876	3
0	917	307.28655410925	2
0	922	307.405583917659	3
0	926	307.770661121424	4
0	927	307.802135046503	3
0	929	308.853647334978	2
0	934	310.790308032643	3
0	935	313.422447781182	2
0	940	314.794281023695	3
0	941	315.730465336624	2
0	946	315.854286779968	3
0	950	316.155868800356	4
0	954	316.22344237146	5
0	955	316.370894953295	4
0	957	316.558608412151	3
0	959	317.319923908891	2
0	961	317.422896870233	1
0	963	319.809758070307	0
0	968	324.323136049069	1
0	972	325.257681181889	2
0	973	326.136033264612	1
0	978	326.347395438178	2
0	982	326.451220542544	3
0	986	327.361044232127	4
0	990	327.394579764111	5
0	991	327.429929459866	4
0	996	327.919238382443	5
0	997	329.098683793326	4
0	999	329.257996844	3
0	1004	330.81482654642	4
0	1005	332.385713646796	3
0	1007	333.170775944601	2
0	1009	334.742721638488	1
0	1014	336.584050050625	2
0	1015	337.148934976282	1
0	1017	337.581102318255	0
0	1022	339.356632754667	1
0	1026	340.185857839985	2
0	1027	340.353467998651	1
0	1032	341.530778873652	2
0	1033	341.565026054627	1
0	1035	342.200196497954	0
0	1040	342.358736718997	1
0	1041	342.41482313026	0
0	1046	342.754395733915	1
0	1050	343.12943363632	2
0	1051	343.88995075175	1
0	1056	344.374628324277	2
0	1057	345.645599628347	1
0	1059	347.489633900233	0
0	1064	348.526690445163	1
0	1068	354.295779021977	2
0	1072	356.170056457424	3
0	1073	356.26712687136	2
0	1075	356.423347032809	1
0	1077	357.952169432007	0
0	1082	357.985984512073	1
0	1083	358.525856536729	0
0	1088	361.047646964608	1
0	1092	362.434046503683	2
0	1096	362.537412315274	3
0	1097	363.352416526301	2
0	1099	363.962093438893	1
0	1104	364.939354128358	2
0	1105	365.016817413725	1
0	1107	373.103398896097	0
0	1112	374.697619904345	1
0	1116	375.319555514285	2
0	1117	377.553109026971	1
0	1122	377.592748504799	2
0	1123	377.620794478002	1
0	1125	380.266884235529	0
0	1130	381.587092439779	1
0	1134	384.36644656733	2
0	1135	385.488106055039	1
0	1137	385.516448553864	0
0	1142	391.042315235038	1
0	1143	392.565910603098	0
0	1148	392.658275341837	1
0	1152	393.135781087533	2
0	1153	393.364849062093	1
0	1158	393.638978313759	2
0	1159	393.753877232982	1
0	1164	394.132696851357	2
0	1168	395.818654402186	3
0	1172	397.022012375235	4
0	1173	397.796050667055	3
0	1175	397.841388111095	2
0	1177	398.168739151059	1
0	1179	402.306205089455	0
0	1184	404.050969736308	1
0	1185	404.931492692078	0
0	1190	406.333245542027	1
0	1194	406.511554122017	2
0	1195	406.512588430773	1
0	1200	406.627698846249	2
0	1201	407.748708229432	1
0	1206	407.965926293629	2
0	1207	408.221246817936	1
0	1209	411.541500604594	0
0	1214	412.223266482692	1
0	1215	413.646515353691	0
0	1220	419.716655710343	1
0	1221	420.310558916345	0
0	1226	421.639534853485	1
0	1227	421.714499913423	0
0	1232	423.203486295236	1
0	1233	423.412339308457	0
0	1238	427.060206568996	1
0	1242	429.784070017607	2
0	1243	430.472822085618	1
0	1248	431.086531481442	2
0	1249	431.597813672613	1
0	1254	433.347242573263	2
0	1255	433.393890884731	1
0	1260	435.215363238474	2
0	1264	437.723769778656	3
0	1265	438.457242844785	2
0	1270	438.991629817444	3
0	1271	440.156762620615	2
0	1276	440.209295644918	3
0	1277	441.126110350361	2
0	1279	442.255343118287	1
0	1284	444.947131986592	2
0	1285	445.009733642422	1
0	1290	445.242324052374	2
0	1294	445.763026875468	3
0	1295	446.920089957604	2
0	1297	449.134320817595	1
0	1299	449.503474419129	0
0	1304	450.030153450418	1
0	1305	451.481068612887	0
0	1310	454.725840973277	1
0	1314	456.801541124255	2
0	1315	457.388346758728	1
0	1320	457.58668718063	2
0	1324	459.053422526966	3
0	1328	459.053533230756	4
0	1332	459.801059818389	5
0	1333	460.012257195374	4
0	1335	460.561200059322	3
0	1340	460.909401476485	4
0	1341	461.525444782692	3
0	1343	462.135971134757	2
0	1345	464.600218143909	1
0	1347	465.235886249609	0
0	1352	465.240928838234	1
0	1356	467.51904413958	2
0	1360	468.737133364998	3
0	1361	469.465288846013	2
0	1366	470.058139524496	3
0	1367	471.008383989856	2
0	1372	473.167465400114	3
0	1376	473.688745658867	4
0	1377	474.400482847014	3
0	1379	474.567600034327	2
0	1381	477.104989379011	1
0	1386	477.934238966751	2
0	1387	478.65400952506	1
0	1392	478.687097669794	2
0	1393	478.891580356766	1
0	1395	480.877780665511	0
0	1400	485.001288752625	1
0	1401	485.079281988204	0
0	1406	486.277665963811	1
0	1407	486.975241018965	0
0	1412	488.764367519708	1
0	1416	489.098116802173	2
0	1417	490.422882631663	1
0	1419	490.504146230104	0
0	1424	491.720061538494	1
0	1425	493.588549467789	0
0	1430	493.798472811657	1
0	1434	494.282312101199	2
0	1438	494.695028088409	3
0	1439	494.774120865586	2
0	1441	496.933669069298	1
0	1446	497.991180434731	2
0	1447	498.366278204501	1
0	1449	500.67714569224	0
0	1454	500.740540342335	1
0	1455	502.926111870538	0
0	1460	502.987461341431	1
0	1461	503.412387445817	0
0	1466	503.635859568404	1
0	1470	504.020382450088	2
0	1471	505.533222249842	1
0	1476	506.458381140451	2
0	1477	507.421297588866	1
0	1482	507.702454978613	2
0	1483	508.309831269707	1
0	1485	508.958515862389	0
0	1490	511.372981784492	1
0	1494	511.831470434906	2
0	1495	511.842409095645	1
0	1500	512.192019034063	2
0	1504	512.458700280608	3
0	1505	513.510385205541	2
0	1507	513.840092207489	1
0	1512	515.019548988566	2
0	1516	515.081401571687	3
0	1520	517.830087600528	4
0	1524	518.024422957262	5
0	1525	518.285748707037	4
0	1530	518.514819142547	5
0	1531	519.224290858687	4
0	1533	519.368213317849	3
0	1535	520.920608125853	2
0	1537	520.924994430548	1
0	1542	521.281452074849	2
0	1546	523.912704591443	3
0	1547	523.916097311004	2
0	1552	524.006080078732	3
0	1556	524.475391777245	4
0	1557	524.8515634825	3
0	1559	525.042638829858	2
0	1564	525.151701206934	3
0	1565	525.30197558836	2
0	1567	525.468762729248	1
0	1572	527.413538165311	2
0	1573	527.463236448576	1
0	1578	527.543763894884	2
0	1582	529.16604593934	3
0	1586	529.184611988096	4
0	1587	532.491275201982	3
0	1592	532.764591197058	4
0	1593	533.718193793912	3
0	1595	533.757320840586	2
0	1597	533.798098131526	1
0	1599	535.501439441445	0
0	1604	541.076533388184	1
0	1608	543.507914334901	2
0	1609	543.706190366981	1
0	1611	543.725175023055	0
0	1616	543.908798725072	1
0	1620	545.345291685288	2
0	1621	545.903221973727	1
0	1626	547.08242314822	2
0	1630	550.18044650653	3
0	1631	551.418636106711	2
0	1636	552.045670217068	3
0	1640	552.538501861494	4
0	1641	553.3292332	3
0	1643	553.35709286609	2
0	1648	553.753060438733	3
0	1649	556.727363034551	2
0	1654	557.974837987499	3
0	1658	559.330441991609	4
0	1659	561.822433148622	3
0	1664	561.84491598275	4
0	1665	562.699662465151	3
0	1670	563.176600956024	4
0	1671	564.146818280813	3
0	1673	564.83130691285	2
0	1678	565.642361882086	3
0	1679	566.484758567625	2
0	1681	566.682621793452	1
0	1686	567.021230957782	2
0	1687	569.397885345324	1
0	1692	570.744094243746	2
0	1696	571.176286676934	3
0	1697	571.216262411419	2
0	1699	572.691536052071	1
0	1701	573.630130023516	0
0	1706	574.144771642234	1
0	1707	575.424379078343	0
0	1712	581.464086303764	1
0	1713	581.945088587224	0
0	1718	585.429584112971	1
0	1722	588.461721972621	2
0	1723	590.414113999698	1
0	1728	596.865440825116	2
0	1729	597.453433077594	1
0	1731	598.929271260499	0
0	1736	599.666792219037	1
0	1740	599.674904861679	2
0	1744	600.302900657806	3
0	1745	600.744575769745	2
0	1747	601.054278815006	1
0	1752	601.35983511441	2
0	1756	602.477850454392	3
0	1757	602.727353482901	2
0	1759	603.109450319004	1
0	1764	603.185043604918	2
0	1768	604.210472890177	3
0	1772	604.467633364729	4
0	1773	604.776538455887	3
0	1775	604.972507025228	2
0	1777	605.333179558899	1
0	1779	606.539735253637	0
0	1784	612.362899899847	1
0	1788	613.405057542016	2
0	1792	615.089330147691	3
0	1796	615.931316743789	4
0	1797	618.308570923174	3
0	1802	619.041905464498	4
0	1806	620.101828623042	5
0	1810	620.992127301855	6
0	1811	621.245865777141	5
0	1813	621.317377270069	4
0	1818	622.012108969554	5
0	1822	622.730696779806	6
0	1823	623.042479485631	5
0	1825	623.504194727517	4
0	1827	623.523508172213	3
0	1829	623.581011930521	2
0	1831	624.231880556967	1
0	1833	624.809219048394	0
0	1838	625.715961108191	1
0	1839	626.142337642369	0
0	1844	630.929104712833	1
0	1845	631.093826830486	0
0	1850	631.716109535078	1
0	1851	635.595553111465	0
0	1856	637.825829093092	1
0	1860	637.853922275577	2
0	1861	637.860308843718	1
0	1866	639.378769644007	2
0	1867	639.855569182975	1
0	1872	640.105254081811	2
0	1873	640.353840900567	1
0	1875	642.270534749558	0
0	1880	644.394025010838	1
0	1881	644.675648652686	0
0	1886	644.971050431534	1
0	1890	647.233807966743	2
0	1891	648.078380034156	1
0	1893	648.315712697255	0
0	1898	650.559739528091	1
0	1902	651.691528611361	2
0	1903	652.196712672393	1
0	1905	654.13658360405	0
0	1910	654.481266793887	1
0	1914	658.020506440307	2
0	1918	658.973463605503	3
0	1922	659.176531773386	4
0	1923	659.599435426631	3
0	1928	659.768335519882	4
0	1929	659.91894369165	3
0	1931	659.939235117283	2
0	1933	660.391439490664	1
0	1938	661.560993929923	2
0	1939	661.915843347121	1
0	1941	662.637877885053	0
0	1946	662.855343338009	1
0	1947	663.767258015696	0
0	1952	664.193949081981	1
0	1956	665.420827261165	2
0	1957	666.021142447952	1
0	1962	666.907993644717	2
0	1966	668.074841186788	3
0	1967	668.870051424414	2
0	1969	669.075051201914	1
0	1971	670.476482398722	0
0	1976	671.904525702073	1
0	1980	673.040866669558	2
0	1981	673.338279664606	1
0	1983	673.64043328332	0
0	1988	676.548295959605	1
0	1992	677.972312090854	2
0	1993	678.147895787694	1
0	1998	678.152986579017	2
0	2002	680.310840396016	3
0	2006	680.773682339926	4
0	2007	681.209532465702	3
0	2009	681.735026690803	2
0	2014	684.531919208346	3
0	2015	684.835486090897	2
0	2017	685.280920721058	1
0	2019	685.432894449203	0
0	2024	686.819300449519	1
0	2028	687.212224221313	2
0	2032	687.357062441542	3
0	2036	687.376533260223	4
0	2037	688.223619809224	3
0	2039	688.312813985179	2
0	2041	688.766703342843	1
0	2043	689.869506159403	0
0	2048	691.828701239107	1
0	2052	692.115207281871	2
0	2053	692.487105721788	1
0	2055	693.962965133223	0
0	2060	695.136130484319	1
0	2061	695.273044632806	0
0	2066	700.321027701886	1
0	2070	702.832814670567	2
0	2071	703.073051238399	1
0	2076	704.182716617873	2
0	2077	705.146281249144	1
0	2082	705.450580870856	2
0	2083	706.377352635271	1
0	2085	706.549934746354	0
0	2090	709.736780271716	1
0	2094	711.077244024868	2
0	2098	712.148052727055	3
0	2099	712.321782747102	2
0	2104	712.530644818852	3
0	2105	712.6386533081	2
0	2110	713.820461801184	3
0	2111	715.259788009363	2
0	2113	715.508937406635	1
0	2118	716.882158639071	2
0	2122	718.507955361442	3
0	2126	718.85634568219	4
0	2127	719.022311487474	3
0	2132	719.1669168532	4
0	2133	720.142429464666	3
0	2135	720.691670513703	2
0	2137	720.812715387044	1
0	2142	721.263495063112	2
0	2143	721.6773547589	1
0	2145	722.287731819546	0
0	2150	722.81317982212	1
0	2154	723.601294966014	2
0	2158	723.919318999613	3
0	2162	724.267716432779	4
0	2163	724.30925682073	3
0	2165	724.540874546367	2
0	2170	724.544890075625	3
0	2174	726.274766294483	4
0	2178	726.468361239099	5
0	2179	726.8994011344	4
0	2181	728.106214829476	3
0	2186	731.296394100115	4
0	2187	731.297436223057	3
0	2192	731.469628089009	4
0	2193	732.880626310351	3
0	2195	732.999783434654	2
0	2197	733.137206729338	1
0	2202	734.69229208725	2
0	2203	735.333514014237	1
0	2205	736.219899547849	0
0	2210	738.885564634295	1
0	2214	739.081803679553	2
0	2218	740.193121505869	3
0	2222	741.475068596397	4
0	2223	742.595594764394	3
0	2225	742.666311446458	2
0	2230	743.211008560433	3
0	2231	743.801262857357	2
0	2236	745.73029090168	3
0	2240	745.78517510254	4
0	2241	745.917173556691	3
0	2243	746.608565668551	2
0	2245	747.452358549051	1
0	2250	748.414219298708	2
0	2251	748.762598390978	1
0	2253	748.939204443363	0
0	2258	751.327339721859	1
0	2262	751.346968594655	2
0	2266	752.084134473876	3
0	2270	752.61432067669	4
0	2271	753.922370808467	3
0	2276	754.014371948921	4
0	2277	755.29632488473	3
0	2279	756.102008090239	2
0	2281	759.864302684461	1
0	2286	760.160522394492	2
0	2287	760.941733524965	1
0	2292	761.792559522422	2
0	2293	761.993695078349	1
0	2298	761.997663308429	2
0	2302	763.941685090553	3
0	2303	764.56996861627	2
0	2308	767.917564000241	3
0	2312	768.260641254987	4
0	2313	769.098893025918	3
0	2315	770.894387239615	2
0	2317	773.331346119262	1
0	2319	775.103103368409	0
0	2324	778.027639235677	1
0	2328	778.205304000986	2
0	2332	778.403747053954	3
0	2333	778.548608925302	2
0	2335	779.928405416112	1
0	2340	780.411849401711	2
0	2341	780.60614648008	1
0	2343	781.179142518264	0
0	2348	786.375408716364	1
0	2349	788.030519554135	0
0	2354	791.896617627731	1
0	2355	792.794602774986	0
0	2360	793.082780822381	1
0	2364	795.684455677301	2
0	2365	795.786071243028	1
0	2370	798.395892705001	2
0	2371	798.754968285675	1
0	2376	799.129303012589	2
0	2380	799.384450160183	3
0	2381	800.446533969352	2
0	2386	800.557987773543	3
0	2387	800.607377625497	2
0	2389	800.707914592372	1
0	2394	801.552406346228	2
0	2395	802.166963147668	1
0	2400	803.070335894725	2
0	2401	804.609116870212	1
0	2406	806.803616835086	2
0	2407	807.977178323048	1
0	2412	808.340541989868	2
0	2413	808.655340231853	1
0	2418	810.621099743706	2
0	2422	812.500103715432	3
0	2426	812.707445388716	4
0	2430	812.900527946771	5
0	2434	813.015713780405	6
0	2438	813.196728720702	7
0	2441	813.738177502176	8
0	2442	813.810518593317	7
0	2445	813.839079264936	6
0	2447	814.087224747957	5
0	2449	814.523746733637	4
0	2451	814.751181621776	3
0	2453	816.0560963355	2
0	2458	817.397261813893	3
0	2459	817.444449185218	2
0	2461	818.608986277248	1
0	2466	818.875101853771	2
0	2467	819.338858554673	1
0	2472	820.314391649148	2
0	2473	820.52589749423	1
0	2475	820.555126973763	0
0	2480	822.413075981002	1
0	2481	823.283896226372	0
0	2486	823.986194164785	1
0	2490	824.052202134898	2
0	2491	824.736046614734	1
0	2493	824.928040350084	0
0	2498	825.787925874673	1
0	2499	826.209353025538	0
0	2504	828.73677032424	1
0	2505	828.773098059425	0
0	2510	829.680706499784	1
0	2511	830.048851521735	0
0	2516	831.031418240129	1
0	2517	833.922196328997	0
0	2522	839.026545193569	1
0	2526	839.587697045923	2
0	2530	840.525539700469	3
0	2534	840.61900950394	4
0	2535	841.152639777509	3
0	2540	841.361332945542	4
0	2541	842.103632087749	3
0	2543	844.415985681963	2
0	2548	844.923202295325	3
0	2549	846.945032627981	2
0	2554	848.213569149474	3
0	2555	850.005231548954	2
0	2560	850.257005844293	3
0	2561	850.459608314924	2
0	2566	851.175061699268	3
0	2570	851.925185585506	4
0	2571	852.945897244346	3
0	2573	853.508537033772	2
0	2578	855.162507718345	3
0	2582	855.308611032654	4
0	2583	855.761878311404	3
0	2585	855.991423297128	2
0	2590	857.609936218513	3
0	2591	858.457276354388	2
0	2593	858.567220966126	1
0	2598	858.56836160748	2
0	2602	860.578228225599	3
0	2603	861.856939290508	2
0	2605	861.857040705054	1
0	2607	862.763360944697	0
0	2612	865.809510090443	1
0	2613	867.464916455358	0
0	2618	869.656987231779	1
0	2622	871.034015007867	2
0	2623	872.049053363963	1
0	2625	872.083926317177	0
0	2630	872.150668586397	1
0	2634	875.608907861762	2
0	2635	875.829065223098	1
0	2637	877.216604247781	0
0	2642	878.289459785721	1
0	2646	879.474774621594	2
0	2647	879.630879493513	1
0	2649	884.76703679816	0
0	2654	886.416064782665	1
0	2658	887.318542379646	2
0	2659	887.459840192812	1
0	2664	888.331988807445	2
0	2665	889.12633562746	1
0	2670	891.01602828981	2
0	2674	892.208372072604	3
0	2675	892.30155110235	2
0	2677	894.185543219157	1
0	2679	897.270026938877	0
0	2684	897.74666103828	1
0	2688	898.341408094096	2
0	2692	899.303164542702	3
0	2696	901.692144429718	4
0	2697	902.747446586008	3
0	2702	906.239558763093	4
0	2703	906.363168846922	3
0	2708	906.497635769462	4
0	2712	907.050581202549	5
0	2713	907.358363055613	4
0	2715	907.386414825981	3
0	2720	907.568805714314	4
0	2721	908.759975211804	3
0	2726	908.91357151839	4
0	2727	909.711021165457	3
0	2729	910.445708427276	2
0	2734	913.35599988479	3
0	2738	914.242668676793	4
0	2739	914.423053784183	3
0	2744	915.215706956309	4
0	2745	916.613710530872	3
0	2747	916.867307074831	2
0	2749	919.151596199563	1
0	2754	920.186969125003	2
0	2758	920.428631917528	3
0	2759	920.728719507001	2
0	2761	921.382795553101	1
0	2766	922.423229765862	2
0	2770	922.708235657163	3
0	2774	923.645827040441	4
0	2775	923.85277722878	3
0	2777	924.114870124047	2
0	2782	924.430149619686	3
0	2783	925.244816994732	2
0	2785	926.591076308626	1
0	2790	926.709740433015	2
0	2791	927.275434605768	1
0	2793	927.790204279985	0
0	2798	929.8844548924	1
0	2802	931.286545911052	2
0	2803	931.674104643031	1
0	2808	931.989188474136	2
0	2809	932.375782431604	1
0	2814	936.331640236844	2
0	2815	937.146050136132	1
0	2820	937.198969947592	2
0	2821	937.471767277586	1
0	2823	939.292782594086	0
0	2828	939.880773396774	1
0	2832	941.501759691138	2
0	2836	941.951844678862	3
0	2840	943.54228908148	4
0	2841	944.517106636855	3
0	2846	945.008739758837	4
0	2850	945.86656343038	5
0	2854	945.916419621835	6
0	2858	946.238704779486	7
0	2861	946.521491004952	8
0	2862	948.01059818852	7
0	2865	948.324954944104	6
0	2867	948.453049440222	5
0	2872	948.982928707014	6
0	2873	949.176815279682	5
0	2875	949.20344783927	4
0	2877	949.474235464507	3
0	2882	951.452288459121	4
0	2883	951.993024271374	3
0	2885	952.491588441606	2
0	2890	953.344491941629	3
0	2891	953.840370978591	2
0	2896	955.573408405061	3
0	2897	956.239251764591	2
0	2902	956.760069541582	3
0	2903	957.182305007868	2
0	2905	957.194616497867	1
0	2910	959.142032448375	2
0	2914	960.092711787658	3
0	2918	960.303504047482	4
0	2919	961.54043743314	3
0	2921	961.794093048585	2
0	2923	961.921948249266	1
0	2928	966.754136214915	2
0	2932	966.904519833243	3
0	2936	966.943498419147	4
0	2937	967.075934419751	3
0	2939	967.907519327754	2
0	2941	969.279347117053	1
0	2946	974.725318599962	2
0	2950	975.046778681097	3
0	2954	975.64548468698	4
0	2958	976.130975561699	5
0	2959	977.061006392348	4
0	2961	977.211818600213	3
0	2963	977.416477642279	2
0	2968	977.86555959936	3
0	2969	978.540385877463	2
0	2971	978.816491739017	1
0	2973	981.858909003287	0
0	2978	985.304376221159	1
0	2982	985.942058317985	2
0	2983	987.127730513509	1
0	2985	987.483115157777	0
0	2990	992.960185419993	1
0	2994	993.011841508845	2
0	2995	993.816892181502	1
0	2997	995.126689472972	0
0	3002	997.391134937961	1
0	3003	998.505982202445	0
0	3008	999.857312392395	1
1	340	100.3442494445	7
1	342	107.888221999704	6
1	346	108.764463599506	7
1	348	109.632053706955	6
1	352	110.702183061122	5
1	356	111.515878449928	6
1	358	111.543014086559	7
1	360	111.989745064327	6
1	364	112.509127432765	7
1	366	113.943473212468	6
1	370	114.294339441845	7
1	372	114.768475672313	6
1	376	117.01481227538	5
1	380	117.460949083136	6
1	382	117.777923962128	5
1	386	117.972692263762	6
1	388	118.43456575165	7
1	390	120.791194628673	6
1	394	122.171236501894	7
1	396	126.765574412377	6
1	400	128.938113174134	5
1	404	128.965442330996	4
1	408	129.244547818709	5
1	410	130.915646199309	4
1	414	131.218750525236	5
1	416	131.926569385527	6
1	418	133.155274930817	5
1	422	134.424899088849	6
1	424	140.302451675506	5
1	428	142.199461464693	6
1	430	144.40236930957	7
1	432	144.51309427709	6
1	436	145.938261463756	5
1	440	146.052915316604	4
1	444	147.252809089886	3
1	448	147.293189346178	2
1	452	147.372737987061	3
1	454	148.290420069069	4
1	456	148.458946123912	3
1	460	148.72369695446	4
1	462	148.843116419846	5
1	464	150.085651133061	6
1	466	155.798876130602	7
1	468	156.242086369603	6
1	472	157.132925293443	5
1	476	157.295614637747	6
1	478	157.512091202719	7
1	480	158.44421786217	6
1	484	159.592320708755	7
1	486	160.777964915267	6
1	490	162.382618042538	7
1	492	165.02643930927	6
1	496	165.225331513717	7
1	498	170.03426287544	6
1	502	170.523053771604	5
1	506	172.188740803736	4
1	510	173.031346367515	5
1	512	173.113985324029	6
1	514	173.571831456636	7
1	516	176.19522184875	6
1	520	177.617717723184	5
1	524	177.913668648439	6
1	526	178.417498700091	7
1	528	182.588882437138	6
1	532	185.162569360361	7
1	534	187.669491453055	6
1	538	187.843032417734	5
1	542	188.493713248792	4
1	546	188.51251475012	3
1	550	188.936506890802	4
1	552	188.99371306003	5
1	554	191.796250979065	6
1	556	192.207170052124	5
1	560	194.290731360483	4
1	564	195.315693861561	5
1	566	195.617259239084	6
1	568	195.986971482451	7
1	570	197.973296303457	6
1	574	198.580347619159	7
1	576	198.588331750982	6
1	580	199.602731997495	5
1	584	199.663669373882	6
1	586	201.212326797098	5
1	590	201.23771887686	6
1	592	201.572831301068	5
1	596	201.586950922545	6
1	598	202.496293093157	5
1	602	202.812976105618	4
1	606	203.757141088182	5
1	608	204.499142169915	4
1	612	205.894195519074	5
1	614	206.509550014337	6
1	616	206.932159476788	5
1	620	207.612852953258	4
1	624	208.470915870782	5
1	626	208.485415791166	6
1	628	208.748661260219	5
1	632	211.323840163706	6
1	634	211.570710078808	5
1	638	212.579397691984	4
1	642	214.260482691166	5
1	644	215.127060126677	6
1	646	216.757589009932	7
1	648	217.106864843706	6
1	652	217.864124822379	7
1	654	219.144182303744	6
1	658	223.587196100692	5
1	662	225.365068183049	6
1	664	225.866412027758	5
1	668	227.059170816417	4
1	672	228.301027274397	5
1	674	230.665886518157	6
1	676	231.486791667329	7
1	678	234.745183982904	6
1	682	234.992237277628	5
1	686	235.804244382726	6
1	688	237.905874394756	5
1	692	238.967319387989	4
1	696	239.42093063802	5
1	698	240.035003891266	6
1	700	241.217883421676	5
1	704	241.792704373816	4
1	708	242.54418205863	3
1	712	243.829490900655	4
1	714	245.355817576193	5
1	716	246.082330859564	6
1	718	248.197195723766	7
1	720	249.272922964732	6
1	724	251.048645785605	5
1	728	253.136044168306	6
1	730	253.148650771134	7
1	732	253.204315553878	6
1	736	254.72805109647	5
1	740	255.252165579821	4
1	744	256.256787176343	3
1	748	256.906353550224	4
1	750	257.826442128406	5
1	752	258.185694307331	4
1	756	258.243833651375	5
1	758	259.053995817563	6
1	760	259.473903723976	5
1	764	260.550685371585	6
1	766	260.744159155238	5
1	770	262.580720626853	6
1	772	263.262246189766	5
1	776	263.941575654931	4
1	780	263.982119751205	5
1	782	264.29004506386	6
1	784	264.90884702811	5
1	788	266.588730238332	6
1	790	266.828700822244	7
1	792	267.674805441184	6
1	796	268.111527376528	7
1	798	271.889700651085	6
1	802	272.106794848075	5
1	806	272.300640357229	4
1	810	272.952373047821	5
1	812	273.174696384777	4
1	816	274.638460265848	5
1	818	274.779800356294	4
1	822	274.84820719301	3
1	826	274.981827592146	4
1	828	275.736935591706	5
1	830	277.956828512438	6
1	832	278.015756018989	7
1	834	281.793278151575	6
1	838	282.567538335873	5
1	842	283.067701325828	4
1	846	283.372288576337	3
1	850	283.487109654937	4
1	852	283.576929806042	3
1	856	284.442219977703	4
1	858	285.089673230622	5
1	860	289.37344031395	6
1	862	290.251673777718	7
1	864	291.852549327063	6
1	868	292.45568115351	5
1	872	293.995834872603	4
1	876	294.312672803489	5
1	878	295.183981869251	4
1	882	295.393745540452	3
1	886	296.106739639522	4
1	888	296.26243685234	3
1	892	296.775242060843	4
1	894	297.529362087785	3
1	898	298.014972347922	4
1	900	299.151568115187	5
1	902	301.20882765794	4
1	906	302.741828259501	5
1	908	305.909182237441	4
1	912	305.985748063211	3
1	916	306.441158962876	4
1	918	307.28655410925	5
1	920	307.405583917659	4
1	924	307.770661121424	3
1	928	307.802135046503	4
1	930	308.853647334978	5
1	932	310.790308032643	4
1	936	313.422447781182	5
1	938	314.794281023695	4
1	942	315.730465336624	5
1	944	315.854286779968	4
1	948	316.155868800356	3
1	952	316.22344237146	2
1	956	316.370894953295	3
1	958	316.558608412151	4
1	960	317.319923908891	5
1	962	317.422896870233	6
1	964	319.809758070307	7
1	966	324.323136049069	6
1	970	325.257681181889	5
1	974	326.136033264612	6
1	976	326.347395438178	5
1	980	326.451220542544	4
1	984	327.361044232127	3
1	988	327.394579764111	2
1	992	327.429929459866	3
1	994	327.919238382443	2
1	998	329.098683793326	3