version 3
run General-21-20221103-10:28:22-6760
attr configname General
attr datetime 20221103-10:28:22
attr datetimef 20221103-102822
attr experiment General
attr inifile block.ini
attr iterationvars "$0=3, $1=20"
attr iterationvarsd 3/20
attr iterationvarsf 3,20-
attr measurement "$0=3, $1=20"
attr network Block
attr processid 6760
attr repetition 1
attr replication #1
attr resultdir results
attr runnumber 21
attr seedset 21
config network Block
config repeat 5
config sim-time-limit 1000s
config warmup-period 100s
config **.alloca.resourceModuleName "\"risorse\""
config **.dealloca.resourceModuleName "\"risorse\""
config **.is.delay exponential(3s)
config **.servente.serviceTime exponential(3s)
config **.dealloca.resourceAmount 2
config **.alloca.resourceAmount 2
config **.risorse.amount 6
config **.sorgente.numJobs (20)
config **.result-recording-modes all

vector 0 Block.servente queueLength:vector ETV
attr interpolationmode sample-hold
attr recordingmode vector
attr title "queue length"
vector 1 Block.servente queueingTime:vector ETV
attr interpolationmode none
attr recordingmode vector
attr title "queueing time at dequeue"
attr unit s
vector 2 Block.alloca queueLength:vector ETV
attr interpolationmode sample-hold
attr recordingmode vector
attr title "queue length"
vector 3 Block.alloca queueingTime:vector ETV
attr interpolationmode none
attr recordingmode vector
attr title "queueing time at dequeue"
attr unit s
vector 4 Block.risorse amount:vector ETV
attr interpolationmode sample-hold
attr recordingmode vector
attr title "available resource"
vector 5 Block.is delayedJobs:vector ETV
attr interpolationmode sample-hold
attr recordingmode vector
attr title "number of delayed jobs"
0	255	101.075938560219	1
0	257	101.075938560219	2
0	263	103.939079523722	1
0	265	103.939079523722	2
0	267	108.228178663326	1
0	269	108.228178663326	2
0	271	108.956642876203	1
0	273	108.956642876203	2
0	281	115.657608360211	1
0	283	115.657608360211	2
0	285	120.031275288167	1
0	287	120.031275288167	2
0	291	121.682691780139	1
0	293	121.682691780139	2
0	297	127.036587328521	1
0	299	127.036587328521	2
0	301	127.124248038527	1
0	303	127.124248038527	2
0	305	128.115976968157	1
0	307	128.115976968157	2
0	317	131.858037081653	1
0	319	131.858037081653	2
0	321	133.285888695073	1
0	323	133.285888695073	2
0	327	136.015248849716	1
0	329	136.015248849716	2
0	335	139.975812068796	1
0	337	139.975812068796	2
0	341	140.963131001365	1
0	343	140.963131001365	2
0	347	143.688934548244	1
0	349	143.688934548244	2
0	351	145.784924930159	1
0	353	145.784924930159	2
0	355	146.220098173832	1
0	357	146.220098173832	2
0	361	149.254173736112	1
0	363	149.254173736112	2
0	367	150.89326146266	1
0	369	150.89326146266	2
0	373	151.965606685943	1
0	375	151.965606685943	2
0	383	160.851611349544	1
0	385	160.851611349544	2
0	387	164.331843784216	1
0	389	164.331843784216	2
0	395	168.235357218355	1
0	397	168.235357218355	2
0	399	169.72830265513	1
0	401	169.72830265513	2
0	403	169.980981500979	1
0	405	169.980981500979	2
0	407	171.46128863192	1
0	409	171.46128863192	2
0	413	171.793619360007	1
0	415	171.793619360007	2
0	425	181.131809782681	1
0	427	181.131809782681	2
0	431	184.916664673743	1
0	433	184.916664673743	2
0	435	186.326066977461	1
0	437	186.326066977461	2
0	443	195.18226624099	1
0	445	195.18226624099	2
0	447	195.990246767917	1
0	449	195.990246767917	2
0	455	199.601076855022	1
0	457	199.601076855022	2
0	461	203.421083497088	1
0	463	203.421083497088	2
0	465	204.783408388299	1
0	467	204.783408388299	2
0	469	204.874140876733	1
0	471	204.874140876733	2
0	475	206.54198734989	1
0	477	206.54198734989	2
0	479	206.933603275017	1
0	481	206.933603275017	2
0	487	210.878970414496	1
0	489	210.878970414496	2
0	495	212.31381054994	1
0	497	212.31381054994	2
0	501	213.062709729026	1
0	503	213.062709729026	2
0	509	217.494420023894	1
0	511	217.494420023894	2
0	513	218.784155255095	1
0	515	218.784155255095	2
0	521	223.488144657224	1
0	523	223.488144657224	2
0	525	224.626714326143	1
0	527	224.626714326143	2
0	531	226.987245394017	1
0	533	226.987245394017	2
0	537	229.411724503312	1
0	539	229.411724503312	2
0	543	232.492468167458	1
0	545	232.492468167458	2
0	549	233.320091790051	1
0	551	233.320091790051	2
0	557	241.608886142325	1
0	559	241.608886142325	2
0	561	244.714809424228	1
0	563	244.714809424228	2
0	567	245.447962196043	1
0	569	245.447962196043	2
0	573	248.90638127466	1
0	575	248.90638127466	2
0	577	251.243219400938	1
0	579	251.243219400938	2
0	585	252.805512080985	1
0	587	252.805512080985	2
0	591	254.503512455662	1
0	593	254.503512455662	2
0	599	258.021661422784	1
0	601	258.021661422784	2
0	603	259.93973395505	1
0	605	259.93973395505	2
0	611	265.385547456363	1
0	613	265.385547456363	2
0	617	265.802326826386	1
0	619	265.802326826386	2
0	623	268.034206908125	1
0	625	268.034206908125	2
0	627	268.088844219871	1
0	629	268.088844219871	2
0	635	272.988576749906	1
0	637	272.988576749906	2
0	641	279.884179785531	1
0	643	279.884179785531	2
0	645	280.936353666187	1
0	647	280.936353666187	2
0	651	281.707440827085	1
0	653	281.707440827085	2
0	659	288.020302082741	1
0	661	288.020302082741	2
0	663	289.614059799199	1
0	665	289.614059799199	2
0	667	290.027399558753	1
0	669	290.027399558753	2
0	675	296.52378617681	1
0	677	296.52378617681	2
0	679	297.261811083102	1
0	681	297.261811083102	2
0	687	300.116533714853	1
0	689	300.116533714853	2
0	691	301.870512191651	1
0	693	301.870512191651	2
0	701	306.067868850584	1
0	703	306.067868850584	2
0	705	307.902564943887	1
0	707	307.902564943887	2
0	709	308.014474244865	1
0	711	308.014474244865	2
0	719	311.257472208352	1
0	721	311.257472208352	2
0	723	312.526864352827	1
0	725	312.526864352827	2
0	731	316.98508280787	1
0	733	316.98508280787	2
0	737	320.271948625144	1
0	739	320.271948625144	2
0	741	321.899356552677	1
0	743	321.899356552677	2
0	747	324.95799552719	1
0	749	324.95799552719	2
0	755	326.273633009623	1
0	757	326.273633009623	2
0	759	327.936191655703	1
0	761	327.936191655703	2
0	767	337.84441011736	1
0	769	337.84441011736	2
0	771	339.341973776015	1
0	773	339.341973776015	2
0	777	340.488141485685	1
0	779	340.488141485685	2
0	785	341.956104905191	1
0	787	341.956104905191	2
0	791	346.57956743864	1
0	793	346.57956743864	2
0	795	347.696173463073	1
0	797	347.696173463073	2
0	803	358.741626287733	1
0	805	358.741626287733	2
0	807	360.840408328826	1
0	809	360.840408328826	2
0	815	370.600773556028	1
0	817	370.600773556028	2
0	821	372.690043049469	1
0	823	372.690043049469	2
0	825	372.801137009572	1
0	827	372.801137009572	2
0	833	375.19882374021	1
0	835	375.19882374021	2
0	837	375.224388909998	1
0	839	375.224388909998	2
0	843	376.278480648227	1
0	845	376.278480648227	2
0	851	380.303288891308	1
0	853	380.303288891308	2
0	857	383.796694599148	1
0	859	383.796694599148	2
0	863	388.749533161288	1
0	865	388.749533161288	2
0	867	389.626589012906	1
0	869	389.626589012906	2
0	875	393.294829535555	1
0	877	393.294829535555	2
0	879	394.342253164577	1
0	881	394.342253164577	2
0	887	396.043548748508	1
0	889	396.043548748508	2
0	893	399.177650819257	1
0	895	399.177650819257	2
0	899	404.700447790098	1
0	901	404.700447790098	2
0	905	406.363980178594	1
0	907	406.363980178594	2
0	911	408.352003779264	1
0	913	408.352003779264	2
0	917	412.294602513156	1
0	919	412.294602513156	2
0	921	414.837743557318	1
0	923	414.837743557318	2
0	925	415.841942859374	1
0	927	415.841942859374	2
0	935	417.748922383552	1
0	937	417.748922383552	2
0	939	418.562492406559	1
0	941	418.562492406559	2
0	943	419.37809881895	1
0	945	419.37809881895	2
0	951	422.177760565602	1
0	953	422.177760565602	2
0	957	423.413541675095	1
0	959	423.413541675095	2
0	963	423.989006962639	1
0	965	423.989006962639	2
0	967	424.393901930133	1
0	969	424.393901930133	2
0	975	425.816090174673	1
0	977	425.816090174673	2
0	979	426.31683433913	1
0	981	426.31683433913	2
0	985	427.626859486253	1
0	987	427.626859486253	2
0	989	428.301562090218	1
0	991	428.301562090218	2
0	995	430.935758653031	1
0	997	430.935758653031	2
0	999	431.10151292921	1
0	1001	431.10151292921	2
0	1009	432.350772233508	1
0	1011	432.350772233508	2
0	1017	434.769736926936	1
0	1019	434.769736926936	2
0	1023	435.298196659502	1
0	1025	435.298196659502	2
0	1027	436.687906343599	1
0	1029	436.687906343599	2
0	1033	440.290697400271	1
0	1035	440.290697400271	2
0	1041	444.434057661438	1
0	1043	444.434057661438	2
0	1047	446.439608071167	1
0	1049	446.439608071167	2
0	1053	453.256888624978	1
0	1055	453.256888624978	2
0	1057	454.417904119085	1
0	1059	454.417904119085	2
0	1065	455.337189743356	1
0	1067	455.337189743356	2
0	1073	463.959875007539	1
0	1075	463.959875007539	2
0	1079	469.535606379332	1
0	1081	469.535606379332	2
0	1083	474.434175034247	1
0	1085	474.434175034247	2
0	1087	474.904871503613	1
0	1089	474.904871503613	2
0	1097	483.679656134257	1
0	1099	483.679656134257	2
0	1101	489.193405676718	1
0	1103	489.193405676718	2
0	1107	491.18129676531	1
0	1109	491.18129676531	2
0	1113	494.805433566622	1
0	1115	494.805433566622	2
0	1117	495.143940764258	1
0	1119	495.143940764258	2
0	1123	496.520867605647	1
0	1125	496.520867605647	2
0	1133	506.314891333271	1
0	1135	506.314891333271	2
0	1139	510.358994131377	1
0	1141	510.358994131377	2
0	1143	511.005592887511	1
0	1145	511.005592887511	2
0	1149	511.810666185849	1
0	1151	511.810666185849	2
0	1157	514.606663560383	1
0	1159	514.606663560383	2
0	1161	514.970949878857	1
0	1163	514.970949878857	2
0	1165	515.100361272868	1
0	1167	515.100361272868	2
0	1171	515.739690495727	1
0	1173	515.739690495727	2
0	1175	516.067238111841	1
0	1177	516.067238111841	2
0	1181	516.968662560695	1
0	1183	516.968662560695	2
0	1191	522.612533987587	1
0	1193	522.612533987587	2
0	1199	527.148927311693	1
0	1201	527.148927311693	2
0	1205	531.491983499198	1
0	1207	531.491983499198	2
0	1209	532.233512650117	1
0	1211	532.233512650117	2
0	1213	532.631182773685	1
0	1215	532.631182773685	2
0	1223	544.237829064772	1
0	1225	544.237829064772	2
0	1227	544.903713894929	1
0	1229	544.903713894929	2
0	1233	547.97816701678	1
0	1235	547.97816701678	2
0	1241	550.175999682258	1
0	1243	550.175999682258	2
0	1247	555.862612938358	1
0	1249	555.862612938358	2
0	1253	563.22167779627	1
0	1255	563.22167779627	2
0	1259	566.074608396966	1
0	1261	566.074608396966	2
0	1265	579.710186211412	1
0	1267	579.710186211412	2
0	1271	580.097385075609	1
0	1273	580.097385075609	2
0	1277	586.832278178995	1
0	1279	586.832278178995	2
0	1283	592.789987857721	1
0	1285	592.789987857721	2
0	1287	593.583361127023	1
0	1289	593.583361127023	2
0	1291	594.637604738728	1
0	1293	594.637604738728	2
0	1295	595.915571019308	1
0	1297	595.915571019308	2
0	1299	595.92124339378	1
0	1301	595.92124339378	2
0	1309	599.840549460279	1
0	1311	599.840549460279	2
0	1315	600.680887833248	1
0	1317	600.680887833248	2
0	1325	608.905649607495	1
0	1327	608.905649607495	2
0	1331	610.617243678538	1
0	1333	610.617243678538	2
0	1337	612.787982103218	1
0	1339	612.787982103218	2
0	1341	613.069423756158	1
0	1343	613.069423756158	2
0	1349	614.295854390162	1
0	1351	614.295854390162	2
0	1353	614.93396417018	1
0	1355	614.93396417018	2
0	1361	618.890983316666	1
0	1363	618.890983316666	2
0	1367	621.018462562854	1
0	1369	621.018462562854	2
0	1373	622.417493789001	1
0	1375	622.417493789001	2
0	1379	628.225925724802	1
0	1381	628.225925724802	2
0	1383	630.255033887276	1
0	1385	630.255033887276	2
0	1387	631.693444265564	1
0	1389	631.693444265564	2
0	1393	632.55680418087	1
0	1395	632.55680418087	2
0	1403	636.624070412994	1
0	1405	636.624070412994	2
0	1407	637.846028480601	1
0	1409	637.846028480601	2
0	1415	648.449389167108	1
0	1417	648.449389167108	2
0	1419	648.669616602101	1
0	1421	648.669616602101	2
0	1425	650.159977756534	1
0	1427	650.159977756534	2
0	1431	653.110130704262	1
0	1433	653.110130704262	2
0	1437	655.695340715409	1
0	1439	655.695340715409	2
0	1443	662.304215652428	1
0	1445	662.304215652428	2
0	1451	670.57123156871	1
0	1453	670.57123156871	2
0	1457	674.752478580677	1
0	1459	674.752478580677	2
0	1463	677.269667366911	1
0	1465	677.269667366911	2
0	1469	678.608503520941	1
0	1471	678.608503520941	2
0	1473	681.841450468654	1
0	1475	681.841450468654	2
0	1477	685.348604583852	1
0	1479	685.348604583852	2
0	1483	686.971532847806	1
0	1485	686.971532847806	2
0	1489	694.055387507463	1
0	1491	694.055387507463	2
0	1499	695.523319976849	1
0	1501	695.523319976849	2
0	1503	697.143153925949	1
0	1505	697.143153925949	2
0	1511	704.544793966593	1
0	1513	704.544793966593	2
0	1515	704.623925236665	1
0	1517	704.623925236665	2
0	1519	707.319486990801	1
0	1521	707.319486990801	2
0	1525	711.520278075912	1
0	1527	711.520278075912	2
0	1529	713.277226463505	1
0	1531	713.277226463505	2
0	1535	715.583731057148	1
0	1537	715.583731057148	2
0	1543	717.224288003339	1
0	1545	717.224288003339	2
0	1547	717.940185682999	1
0	1549	717.940185682999	2
0	1557	722.476935952378	1
0	1559	722.476935952378	2
0	1561	722.551527000751	1
0	1563	722.551527000751	2
0	1567	724.723567696525	1
0	1569	724.723567696525	2
0	1573	727.08353076053	1
0	1575	727.08353076053	2
0	1583	734.185865736303	1
0	1585	734.185865736303	2
0	1589	746.345211061612	1
0	1591	746.345211061612	2
0	1593	746.468174042363	1
0	1595	746.468174042363	2
0	1599	747.267600651266	1
0	1601	747.267600651266	2
0	1603	747.520685200414	1
0	1605	747.520685200414	2
0	1611	750.936900392005	1
0	1613	750.936900392005	2
0	1615	752.90491691933	1
0	1617	752.90491691933	2
0	1621	755.05379412548	1
0	1623	755.05379412548	2
0	1627	757.412687217533	1
0	1629	757.412687217533	2
0	1633	760.0933550425	1
0	1635	760.0933550425	2
0	1643	767.032996527037	1
0	1645	767.032996527037	2
0	1649	770.681411067194	1
0	1651	770.681411067194	2
0	1655	772.288267360481	1
0	1657	772.288267360481	2
0	1659	772.982275128086	1
0	1661	772.982275128086	2
0	1665	774.762073852538	1
0	1667	774.762073852538	2
0	1669	775.022763786429	1
0	1671	775.022763786429	2
0	1677	777.622444344121	1
0	1679	777.622444344121	2
0	1683	780.409720119238	1
0	1685	780.409720119238	2
0	1691	806.72283231217	1
0	1693	806.72283231217	2
0	1695	808.996738595169	1
0	1697	808.996738595169	2
0	1701	809.458139902411	1
0	1703	809.458139902411	2
0	1707	812.086777190062	1
0	1709	812.086777190062	2
0	1713	813.293534351942	1
0	1715	813.293534351942	2
0	1717	814.88935970406	1
0	1719	814.88935970406	2
0	1727	818.905415560222	1
0	1729	818.905415560222	2
0	1733	819.062681071657	1
0	1735	819.062681071657	2
0	1739	821.602900248984	1
0	1741	821.602900248984	2
0	1745	829.155472106312	1
0	1747	829.155472106312	2
0	1751	831.860887340187	1
0	1753	831.860887340187	2
0	1755	833.140457278814	1
0	1757	833.140457278814	2
0	1761	836.522952387694	1
0	1763	836.522952387694	2
0	1769	838.61909088743	1
0	1771	838.61909088743	2
0	1773	839.117859963886	1
0	1775	839.117859963886	2
0	1777	840.234028888455	1
0	1779	840.234028888455	2
0	1785	842.879503951346	1
0	1787	842.879503951346	2
0	1793	854.140632851859	1
0	1795	854.140632851859	2
0	1799	858.445796793692	1
0	1801	858.445796793692	2
0	1805	862.311247613457	1
0	1807	862.311247613457	2
0	1809	863.687040374024	1
0	1811	863.687040374024	2
0	1817	873.525918552794	1
0	1819	873.525918552794	2
0	1821	874.043288347253	1
0	1823	874.043288347253	2
0	1829	875.579709480109	1
0	1831	875.579709480109	2
0	1833	876.219747610408	1
0	1835	876.219747610408	2
0	1841	887.242287106528	1
0	1843	887.242287106528	2
0	1845	892.209012923245	1
0	1847	892.209012923245	2
0	1851	892.613147495633	1
0	1853	892.613147495633	2
0	1859	898.758197495419	1
0	1861	898.758197495419	2
0	1863	900.454855708523	1
0	1865	900.454855708523	2
0	1867	900.630421988882	1
0	1869	900.630421988882	2
0	1873	903.64189950286	1
0	1875	903.64189950286	2
0	1881	908.529591142508	1
0	1883	908.529591142508	2
0	1889	911.247205236131	1
0	1891	911.247205236131	2
0	1893	911.984065938105	1
0	1895	911.984065938105	2
0	1899	913.197644705113	1
0	1901	913.197644705113	2
0	1903	913.334389091388	1
0	1905	913.334389091388	2
0	1907	915.872383525676	1
0	1909	915.872383525676	2
0	1919	919.334937388743	1
0	1921	919.334937388743	2
0	1923	920.49246323216	1
0	1925	920.49246323216	2
0	1931	926.146546557731	1
0	1933	926.146546557731	2
0	1935	926.583430754412	1
0	1937	926.583430754412	2
0	1939	927.622485130144	1
0	1941	927.622485130144	2
0	1945	927.862068060779	1
0	1947	927.862068060779	2
0	1949	928.105127770141	1
0	1951	928.105127770141	2
0	1957	929.890149340723	1
0	1959	929.890149340723	2
0	1967	931.571804433034	1
0	1969	931.571804433034	2
0	1973	935.836188244215	1
0	1975	935.836188244215	2
0	1977	938.152522117143	1
0	1979	938.152522117143	2
0	1985	939.679754341816	1
0	1987	939.679754341816	2
0	1991	943.406589338356	1
0	1993	943.406589338356	2
0	1997	944.027628135934	1
0	1999	944.027628135934	2
0	2003	945.75896408698	1
0	2005	945.75896408698	2
0	2007	950.760322395984	1
0	2009	950.760322395984	2
0	2013	956.130450405743	1
0	2015	956.130450405743	2
0	2017	957.689256630325	1
0	2019	957.689256630325	2
0	2027	961.118707306155	1
0	2029	961.118707306155	2
0	2031	961.129227542721	1
0	2033	961.129227542721	2
0	2035	962.415269768801	1
0	2037	962.415269768801	2
0	2039	962.608574821496	1
0	2041	962.608574821496	2
0	2047	964.797277037526	1
0	2049	964.797277037526	2
0	2057	972.448366538281	1
0	2059	972.448366538281	2
0	2061	977.644189191877	1
0	2063	977.644189191877	2
0	2069	979.389489517899	1
0	2071	979.389489517899	2
0	2073	979.529674695059	1
0	2075	979.529674695059	2
0	2081	987.322585505789	1
0	2083	987.322585505789	2
0	2085	987.773820128264	1
0	2087	987.773820128264	2
0	2093	990.024585925467	1
0	2095	990.024585925467	2
1	255	101.075938560219	10.794247338214
1	263	103.939079523722	5.086059560159
1	267	108.228178663326	7.152240103107
1	271	108.956642876203	5.017563352481
1	281	115.657608360211	7.429429696885
1	285	120.031275288167	11.074632411964
1	291	121.682691780139	6.025083419928
1	297	127.036587328521	7.005312040354
1	301	127.124248038527	5.441556258388
1	305	128.115976968157	1.079389639636
1	317	131.858037081653	4.733789043126
1	321	133.285888695073	5.169911726916
1	327	136.015248849716	4.157211768063
1	335	139.975812068796	6.689923373723
1	341	140.963131001365	4.947882151649
1	347	143.688934548244	3.713122479448
1	351	145.784924930159	4.821793928794
1	355	146.220098173832	2.531163625588
1	361	149.254173736112	3.469248805953
1	367	150.89326146266	4.673163288828
1	373	151.965606685943	2.711432949831
1	383	160.851611349544	9.958349886884
1	387	164.331843784216	12.366237098273
1	395	168.235357218355	7.383745868811
1	399	169.72830265513	5.396458870914
1	403	169.980981500979	1.745624282624
1	407	171.46128863192	1.73298597679
1	413	171.793619360007	1.812637859028
1	425	181.131809782681	9.670521150761
1	431	184.916664673743	13.123045313736
1	435	186.326066977461	5.19425719478
1	443	195.18226624099	10.265601567247
1	447	195.990246767917	9.664179790456
1	455	199.601076855022	4.418810614032
1	461	203.421083497088	7.430836729171
1	465	204.783408388299	5.182331533277
1	469	204.874140876733	1.453057379645
1	475	206.54198734989	1.758578961591
1	479	206.933603275017	2.059462398284
1	487	210.878970414496	4.336983064606
1	495	212.31381054994	5.380207274923
1	501	213.062709729026	2.18373931453
1	509	217.494420023894	5.180609473954
1	513	218.784155255095	5.721445526069
1	521	223.488144657224	5.99372463333
1	525	224.626714326143	5.842559071048
1	531	226.987245394017	3.499100736793
1	537	229.411724503312	4.785010177169
1	543	232.492468167458	5.505222773441
1	549	233.320091790051	3.908367286739
1	557	241.608886142325	9.116417974867
1	561	244.714809424228	11.394717634177
1	567	245.447962196043	3.839076053718
1	573	248.90638127466	4.191571850432
1	577	251.243219400938	5.795257204895
1	585	252.805512080985	3.899130806325
1	591	254.503512455662	3.260293054724
1	599	258.021661422784	5.216149341799
1	603	259.93973395505	5.436221499388
1	611	265.385547456363	7.363886033579
1	617	265.802326826386	5.862592871336
1	623	268.034206908125	2.648659451762
1	627	268.088844219871	2.286517393485
1	635	272.988576749906	4.954369841781
1	641	279.884179785531	11.79533556566
1	645	280.936353666187	7.947776916281
1	651	281.707440827085	1.823261041554
1	659	288.020302082741	7.083948416554
1	663	289.614059799199	7.906618972114
1	667	290.027399558753	2.007097476012
1	675	296.52378617681	6.909726377611
1	679	297.261811083102	7.234411524349
1	687	300.116533714853	3.592747538043
1	691	301.870512191651	4.608701108549
1	701	306.067868850584	5.951335135731
1	705	307.902564943887	6.032052752236
1	709	308.014474244865	1.946605394281
1	719	311.257472208352	3.354907264465
1	723	312.526864352827	4.512390107962
1	731	316.98508280787	5.727610599518
1	737	320.271948625144	7.745084272317
1	741	321.899356552677	4.914273744807
1	747	324.95799552719	4.686046902046
1	755	326.273633009623	4.374276456946
1	759	327.936191655703	2.978196128513
1	767	337.84441011736	11.570777107737
1	771	339.341973776015	11.405782120312
1	777	340.488141485685	2.643731368325
1	785	341.956104905191	2.614131129176
1	791	346.57956743864	6.091425952955
1	795	347.696173463073	5.740068557882
1	803	358.741626287733	12.162058849093
1	807	360.840408328826	13.144234865753
1	815	370.600773556028	11.859147268295
1	821	372.690043049469	11.849634720643
1	825	372.801137009572	2.200363453544
1	833	375.19882374021	2.508780690741
1	837	375.224388909998	2.423251900426
1	843	376.278480648227	1.079656908017
1	851	380.303288891308	5.07889998131
1	857	383.796694599148	7.518213950921
1	863	388.749533161288	8.44624426998
1	867	389.626589012906	5.829894413758
1	875	393.294829535555	4.545296374267
1	879	394.342253164577	4.715664151671
1	887	396.043548748508	2.748719212953
1	893	399.177650819257	4.83539765468
1	899	404.700447790098	8.65689904159
1	905	406.363980178594	7.186329359337
1	911	408.352003779264	3.651555989166
1	917	412.294602513156	5.930622334562
1	921	414.837743557318	6.485739778054
1	925	415.841942859374	3.547340346218
1	935	417.748922383552	2.911178826234
1	939	418.562492406559	2.720549547185
1	943	419.37809881895	1.629176435398
1	951	422.177760565602	3.615268159043
1	957	423.413541675095	4.035442856145
1	963	423.989006962639	1.811246397037
1	967	424.393901930133	0.980360255038
1	975	425.816090174673	1.827083212034
1	979	426.31683433913	1.922932408997
1	985	427.626859486253	1.81076931158
1	989	428.301562090218	1.984727751088
1	995	430.935758653031	3.308899166778
1	999	431.10151292921	2.799950838992
1	1009	432.350772233508	1.415013580477
1	1017	434.769736926936	3.668223997726
1	1023	435.298196659502	2.947424425994
1	1027	436.687906343599	1.918169416663
1	1033	440.290697400271	4.992500740769
1	1041	444.434057661438	7.746151317839
1	1047	446.439608071167	6.148910670896
1	1053	453.256888624978	8.82283096354
1	1057	454.417904119085	7.978296047918
1	1065	455.337189743356	2.080301118378
1	1073	463.959875007539	9.541970888454
1	1079	469.535606379332	14.198416635976
1	1083	474.434175034247	10.474300026708
1	1087	474.904871503613	5.369265124281
1	1097	483.679656134257	9.24548110001
1	1101	489.193405676718	14.288534173105
1	1107	491.18129676531	7.501640631053
1	1113	494.805433566622	5.612027889904
1	1117	495.143940764258	3.962643998948
1	1123	496.520867605647	1.715434039025
1	1133	506.314891333271	11.170950569013
1	1139	510.358994131377	13.83812652573
1	1143	511.005592887511	4.69070155424
1	1149	511.810666185849	1.451672054472
1	1157	514.606663560383	3.601070672872
1	1161	514.970949878857	3.160283693008
1	1165	515.100361272868	0.493697712485
1	1171	515.739690495727	0.76874061687
1	1175	516.067238111841	0.966876838973
1	1181	516.968662560695	1.228972064968
1	1191	522.612533987587	6.545295875746
1	1199	527.148927311693	10.180264750998
1	1205	531.491983499198	8.879449511611
1	1209	532.233512650117	5.084585338424
1	1213	532.631182773685	1.139199274487
1	1223	544.237829064772	12.004316414655
1	1227	544.903713894929	12.272531121244
1	1233	547.97816701678	3.740337952008
1	1241	550.175999682258	5.272285787329
1	1247	555.862612938358	7.884445921578
1	1253	563.22167779627	13.045678114012
1	1259	566.074608396966	10.211995458608
1	1265	579.710186211412	16.488508415142
1	1271	580.097385075609	14.022776678643
1	1277	586.832278178995	7.122091967583
1	1283	592.789987857721	12.692602782112
1	1287	593.583361127023	6.751082948028
1	1291	594.637604738728	1.847616881007
1	1295	595.915571019308	2.332209892285
1	1299	595.92124339378	1.283638655052
1	1309	599.840549460279	3.924978440971
1	1315	600.680887833248	4.759644439468
1	1325	608.905649607495	9.065100147216
1	1331	610.617243678538	9.93635584529
1	1337	612.787982103218	3.882332495723
1	1341	613.069423756158	2.45218007762
1	1349	614.295854390162	1.507872286944
1	1353	614.93396417018	1.864540414022
1	1361	618.890983316666	4.595128926504
1	1367	621.018462562854	6.084498392674
1	1373	622.417493789001	3.526510472335
1	1379	628.225925724802	7.207463161948
1	1383	630.255033887276	7.837540098275
1	1387	631.693444265564	3.467518540762
1	1393	632.55680418087	2.301770293594
1	1403	636.624070412994	4.93062614743
1	1407	637.846028480601	5.289224299731
1	1415	648.449389167108	11.825318754114
1	1419	648.669616602101	10.8235881215
1	1425	650.159977756534	1.710588589426
1	1431	653.110130704262	4.440514102161
1	1437	655.695340715409	5.535362958875
1	1443	662.304215652428	9.194084948166
1	1451	670.57123156871	14.875890853301
1	1457	674.752478580677	12.448262928249
1	1463	677.269667366911	6.698435798201
1	1469	678.608503520941	3.856024940264
1	1473	681.841450468654	4.571783101743
1	1477	685.348604583852	6.740101062911
1	1483	686.971532847806	5.130082379152
1	1489	694.055387507463	8.706782923611
1	1499	695.523319976849	8.551787129043
1	1503	697.143153925949	3.087766418486
1	1511	704.544793966593	9.021473989744
1	1515	704.623925236665	7.480771310716
1	1519	707.319486990801	2.774693024208
1	1525	711.520278075912	6.896352839247
1	1529	713.277226463505	5.957739472704
1	1535	715.583731057148	4.063452981236
1	1543	717.224288003339	3.947061539834
1	1547	717.940185682999	2.356454625851
1	1557	722.476935952378	5.252647949039
1	1561	722.551527000751	4.611341317752
1	1567	724.723567696525	2.246631744147
1	1573	727.08353076053	4.532003759779
1	1583	734.185865736303	9.462298039778
1	1589	746.345211061612	19.261680301082
1	1593	746.468174042363	12.28230830606
1	1599	747.267600651266	0.922389589654
1	1603	747.520685200414	1.052511158051
1	1611	750.936900392005	3.669299740739
1	1615	752.90491691933	5.384231718916
1	1621	755.05379412548	4.116893733475
1	1627	757.412687217533	4.507770298203
1	1633	760.0933550425	5.03956091702
1	1643	767.032996527037	9.620309309504
1	1649	770.681411067194	10.588056024694
1	1655	772.288267360481	5.255270833444
1	1659	772.982275128086	2.300864060892
1	1665	774.762073852538	2.473806492057
1	1669	775.022763786429	2.040488658343
1	1677	777.622444344121	2.860370491583
1	1683	780.409720119238	5.386956332809
1	1691	806.72283231217	29.100387968049
1	1695	808.996738595169	28.587018475931
1	1701	809.458139902411	2.735307590241
1	1707	812.086777190062	3.090038594893
1	1713	813.293534351942	3.835394449531
1	1717	814.88935970406	2.802582513998
1	1727	818.905415560222	5.61188120828
1	1733	819.062681071657	4.173321367597
1	1739	821.602900248984	2.697484688762
1	1745	829.155472106312	10.092791034655
1	1751	831.860887340187	10.257987091203
1	1755	833.140457278814	3.984985172502
1	1761	836.522952387694	4.662065047507
1	1769	838.61909088743	5.478633608616
1	1773	839.117859963886	2.594907576192
1	1777	840.234028888455	1.614938001025
1	1785	842.879503951346	3.76164398746
1	1793	854.140632851859	13.906603963404
1	1799	858.445796793692	15.566292842346
1	1805	862.311247613457	8.170614761598
1	1809	863.687040374024	5.241243580332
1	1817	873.525918552794	11.214670939337
1	1821	874.043288347253	10.356247973229
1	1829	875.579709480109	2.053790927315
1	1833	876.219747610408	2.176459263155
1	1841	887.242287106528	11.662577626419
1	1845	892.209012923245	15.989265312837
1	1851	892.613147495633	5.370860389105
1	1859	898.758197495419	6.549184572174
1	1863	900.454855708523	7.84170821289
1	1867	900.630421988882	1.872224493463
1	1873	903.64189950286	3.187043794337
1	1881	908.529591142508	7.899169153626
1	1889	911.247205236131	7.605305733271
1	1893	911.984065938105	3.454474795597
1	1899	913.197644705113	1.950439468982
1	1903	913.334389091388	1.350323153283
1	1907	915.872383525676	2.674738820563
1	1919	919.334937388743	6.000548297355
1	1923	920.49246323216	4.620079706484
1	1931	926.146546557731	6.811609168988
1	1935	926.583430754412	6.090967522252
1	1939	927.622485130144	1.475938572413
1	1945	927.862068060779	1.278637306367
1	1949	928.105127770141	0.482642639997
1	1957	929.890149340723	2.028081279944
1	1967	931.571804433034	3.466676662893
1	1973	935.836188244215	5.946038903492
1	1977	938.152522117143	6.580717684109
1	1985	939.679754341816	3.843566097601
1	1991	943.406589338356	5.254067221213
1	1997	944.027628135934	4.347873794118
1	2003	945.75896408698	2.352374748624
1	2007	950.760322395984	6.73269426005
1	2013	956.130450405743	10.371486318763
1	2017	957.689256630325	6.928934234341
1	2027	961.118707306155	4.988256900412
1	2031	961.129227542721	3.439970912396
1	2035	962.415269768801	1.296562462646
1	2039	962.608574821496	1.479347278775
1	2047	964.797277037526	2.382007268725
1	2057	972.448366538281	9.839791716785
1	2061	977.644189191877	12.846912154351
1	2069	979.389489517899	6.941122979618
1	2073	979.529674695059	1.885485503182
1	2081	987.322585505789	7.93309598789
1	2085	987.773820128264	8.244145433205
1	2093	990.024585925467	2.702000419678
2	256	101.075938560219	15
2	260	103.827581509016	16
2	262	103.837702281201	17
2	264	103.939079523722	16
2	268	108.228178663326	15
2	272	108.956642876203	14
2	276	110.248401883326	15
2	278	110.797453775033	16
2	280	114.242979142509	17
2	282	115.657608360211	16
2	286	120.031275288167	15
2	290	121.532243831646	16
2	292	121.682691780139	15
2	296	124.691088061355	16
2	298	127.036587328521	15
2	302	127.124248038527	14
2	306	128.115976968157	13
2	310	128.241245953966	14
2	312	128.941802233232	15
2	314	129.211460239163	16
2	316	130.637135255143	17
2	318	131.858037081653	16
2	322	133.285888695073	15
2	326	133.73718777065	16
2	328	136.015248849716	15
2	332	137.00383942864	16
2	334	137.554215237838	17
2	336	139.975812068796	16
2	340	140.764633390062	17
2	342	140.963131001365	16
2	346	143.641276692359	17