version 3
run General-37-20221103-10:28:22-6760
attr configname General
attr datetime 20221103-10:28:22
attr datetimef 20221103-102822
attr experiment General
attr inifile block.ini
attr iterationvars "$0=4, $1=20"
attr iterationvarsd 4/20
attr iterationvarsf 4,20-
attr measurement "$0=4, $1=20"
attr network Block
attr processid 6760
attr repetition 2
attr replication #2
attr resultdir results
attr runnumber 37
attr seedset 37
config network Block
config repeat 5
config sim-time-limit 1000s
config warmup-period 100s
config **.alloca.resourceModuleName "\"risorse\""
config **.dealloca.resourceModuleName "\"risorse\""
config **.is.delay exponential(3s)
config **.servente.serviceTime exponential(4s)
config **.dealloca.resourceAmount 2
config **.alloca.resourceAmount 2
config **.risorse.amount 6
config **.sorgente.numJobs (20)
config **.result-recording-modes all

vector 0 Block.is delayedJobs:vector ETV
attr interpolationmode sample-hold
attr recordingmode vector
attr title "number of delayed jobs"
vector 1 Block.alloca queueLength:vector ETV
attr interpolationmode sample-hold
attr recordingmode vector
attr title "queue length"
vector 2 Block.servente queueLength:vector ETV
attr interpolationmode sample-hold
attr recordingmode vector
attr title "queue length"
vector 3 Block.servente queueingTime:vector ETV
attr interpolationmode none
attr recordingmode vector
attr title "queueing time at dequeue"
attr unit s
vector 4 Block.alloca queueingTime:vector ETV
attr interpolationmode none
attr recordingmode vector
attr title "queueing time at dequeue"
attr unit s
vector 5 Block.risorse amount:vector ETV
attr interpolationmode sample-hold
attr recordingmode vector
attr title "available resource"
0	235	100.483553130808	1
0	237	103.40173251032	0
0	242	109.528418498267	1
0	243	109.539249696052	0
0	248	116.695584909073	1
0	252	117.450986137156	2
0	256	117.621612815158	3
0	257	118.573359702636	2
0	259	118.683252470238	1
0	261	119.921344409562	0
0	266	129.302562630819	1
0	270	135.099605340393	2
0	271	137.586516611661	1
0	273	141.375475562128	0
0	278	142.815927498739	1
0	282	146.314496598742	2
0	283	146.999806735917	1
0	285	148.190940742053	0
0	290	156.822052075736	1
0	294	160.065711771569	2
0	295	160.184184634811	1
0	297	160.473232832179	0
0	302	164.679623844557	1
0	306	165.513804623316	2
0	310	165.87288505265	3
0	311	167.142712963293	2
0	313	168.09512750775	1
0	318	169.076007719051	2
0	322	170.416935109721	3
0	323	172.867643600181	2
0	325	177.786102928841	1
0	330	179.058916505192	2
0	331	181.66623880864	1
0	333	181.740409071219	0
0	338	183.358231548022	1
0	342	184.552864016005	2
0	346	185.991459122908	3
0	347	187.198948675814	2
0	349	187.207857198595	1
0	354	188.865209913814	2
0	358	190.50484562409	3
0	359	190.799777288141	2
0	361	192.261343807961	1
0	363	194.467871516214	0
0	368	196.26501194901	1
0	372	200.083562044475	2
0	373	200.193536444438	1
0	378	202.307544041916	2
0	379	203.063339144449	1
0	384	203.160989411516	2
0	388	203.247562680085	3
0	389	204.389549389076	2
0	391	206.76839961826	1
0	393	208.272210834499	0
0	398	212.106038969016	1
0	399	213.733017768398	0
0	404	216.217208653884	1
0	405	216.904175023485	0
0	410	219.110122689306	1
0	411	219.231446302505	0
0	416	220.171001671575	1
0	417	222.901336404917	0
0	422	222.981207560329	1
0	426	227.184973508701	2
0	430	229.313174462064	3
0	434	230.06969719893	4
0	435	231.42047465198	3
0	440	232.194771508659	4
0	444	234.412723871645	5
0	445	234.816330357081	4
0	447	234.827082857421	3
0	452	235.613758035978	4
0	453	235.986709173071	3
0	455	237.285434720377	2
0	457	237.862328285542	1
0	462	238.068674779248	2
0	463	238.290810204342	1
0	468	238.844090719171	2
0	472	241.952306401381	3
0	473	242.331997995154	2
0	478	243.641340505183	3
0	479	243.862621001862	2
0	481	246.123368220347	1
0	486	246.897567418439	2
0	490	247.636995926111	3
0	491	248.201628672662	2
0	493	248.809902121874	1
0	498	248.867324918895	2
0	499	248.889934109374	1
0	501	249.310909230186	0
0	506	250.339014981302	1
0	507	252.048566228076	0
0	512	257.242243723272	1
0	516	259.264185108825	2
0	520	261.563178983429	3
0	524	261.851201262857	4
0	525	262.186191335516	3
0	530	262.48540768376	4
0	531	262.748909208809	3
0	536	262.942133916071	4
0	537	263.230970226172	3
0	539	263.984224121367	2
0	544	265.617312466736	3
0	545	266.220148987822	2
0	550	266.249929410556	3
0	551	266.261291994192	2
0	553	266.639639455101	1
0	558	266.751894294533	2
0	559	268.069463592243	1
0	561	269.131320223243	0
0	566	274.202542116973	1
0	567	275.28263404539	0
0	572	276.882337685442	1
0	573	278.274682471609	0
0	578	278.635197788319	1
0	582	279.223584096377	2
0	583	281.51202163435	1
0	585	281.625010350591	0
0	590	289.449230695554	1
0	591	291.017130063741	0
0	596	301.90247847551	1
0	597	303.229423017109	0
0	602	306.840018781284	1
0	603	308.667683302687	0
0	608	314.831386639371	1
0	612	317.12784399801	2
0	613	317.661080752937	1
0	615	317.970931733471	0
0	620	319.738996619797	1
0	624	319.979076411259	2
0	628	321.791313878133	3
0	629	322.697972322737	2
0	634	323.40821168915	3
0	635	323.413335656793	2
0	637	324.346216126764	1
0	642	326.813146652735	2
0	643	328.432445094787	1
0	645	330.326132151392	0
0	650	330.791386430314	1
0	654	332.314138545914	2
0	655	335.682278770195	1
0	657	336.251653971155	0
0	662	336.801585956145	1
0	663	337.371194185603	0
0	668	341.805950561051	1
0	669	343.725898061522	0
0	674	346.823115162882	1
0	678	347.191669838845	2
0	682	347.879277956958	3
0	683	348.165740560337	2
0	685	348.947558296726	1
0	687	350.632675811833	0
0	692	352.335859946693	1
0	693	352.348216809425	0
0	698	354.38447709025	1
0	699	356.568816478833	0
0	704	368.024582736403	1
0	705	368.269675216954	0
0	710	370.013650078589	1
0	711	371.895685585674	0
0	716	376.507089531122	1
0	717	376.58247674977	0
0	722	377.988063975287	1
0	726	379.062681818254	2
0	727	379.595838206169	1
0	732	380.476351731975	2
0	733	382.976618446521	1
0	735	391.615710271842	0
0	740	393.722002035948	1
0	744	397.263925092687	2
0	745	398.660040708859	1
0	747	401.450906325039	0
0	752	404.329767086186	1
0	753	406.909213469202	0
0	758	408.331111959235	1
0	759	412.415016138644	0
0	764	413.305523062436	1
0	768	415.2836426617	2
0	769	416.809507960173	1
0	774	418.363517568272	2
0	775	418.373778795842	1
0	777	420.33276624753	0
0	782	420.674493054976	1
0	786	420.750692285097	2
0	790	421.033692279878	3
0	791	421.094389618546	2
0	796	422.108676944921	3
0	797	422.915649711222	2
0	799	425.787235526719	1
0	801	426.100240428599	0
0	806	430.134119098603	1
0	807	430.237013206932	0
0	812	433.079349917109	1
0	813	433.21472208798	0
0	818	439.724350304981	1
0	819	440.28217077731	0
0	824	441.314256420512	1
0	825	442.127557458838	0
0	830	451.707790884789	1
0	834	452.030278104043	2
0	835	455.015871009748	1
0	840	456.660159253899	2
0	844	458.287081971314	3
0	845	458.932649764553	2
0	847	460.143459125053	1
0	849	462.391441640143	0
0	854	465.528264206752	1
0	858	466.148481559191	2
0	859	466.694102376206	1
0	864	467.359610120946	2
0	865	469.404693786093	1
0	870	470.874737515566	2
0	871	475.003115196795	1
0	876	475.507685412486	2
0	877	476.047835684402	1
0	879	476.111850262482	0
0	884	483.307243855391	1
0	885	485.317143262925	0
0	890	488.883698823638	1
0	894	490.689249406693	2
0	898	490.900569218224	3
0	899	491.028341484469	2
0	901	492.064042202165	1
0	903	492.526457296147	0
0	908	496.659497287352	1
0	912	499.055992866034	2
0	913	499.91587973334	1
0	918	502.353751212651	2
0	919	502.867673672889	1
0	924	506.904005898569	2
0	925	508.099311943406	1
0	930	510.393023035637	2
0	931	510.876217931529	1
0	933	514.238398733729	0
0	938	514.38780773087	1
0	939	517.291024018234	0
0	944	520.937787479033	1
0	948	520.975683200327	2
0	952	524.570442199602	3
0	956	524.801843589554	4
0	957	524.847268285335	3
0	959	525.366469406301	2
0	964	525.809808862424	3
0	965	525.974417749076	2
0	970	526.150033441189	3
0	971	526.57714325576	2
0	973	526.665984115274	1
0	978	527.605235030915	2
0	982	527.606563459033	3
0	983	529.020949025529	2
0	985	531.806704435398	1
0	987	539.634811846987	0
0	992	540.176406779166	1
0	993	542.376011534504	0
0	998	546.738738740053	1
0	1002	547.595848582793	2
0	1006	549.734612294346	3
0	1007	549.879467328134	2
0	1009	550.584264124367	1
0	1011	551.679964412521	0
0	1016	553.605899496918	1
0	1017	556.764325043784	0
0	1022	558.324186472488	1
0	1023	561.117364495142	0
0	1028	563.285547902869	1
0	1029	564.86443566302	0
0	1034	565.974347893476	1
0	1038	566.107071791626	2
0	1039	567.176115457853	1
0	1041	569.143824061948	0
0	1046	571.561644011759	1
0	1047	572.881226999553	0
0	1052	572.98055978218	1
0	1053	574.415173660907	0
0	1058	577.16082219974	1
0	1059	578.81711352768	0
0	1064	593.323502331965	1
0	1065	593.754982539607	0
0	1070	598.39104771323	1
0	1074	598.773062461072	2
0	1075	598.9970115476	1
0	1077	599.369471402949	0
0	1082	600.77102828268	1
0	1083	601.615502518935	0
0	1088	604.916038239731	1
0	1089	607.424852543725	0
0	1094	609.626009542764	1
0	1095	611.146151724503	0
0	1100	614.178446986059	1
0	1104	615.263574142243	2
0	1105	615.509268702759	1
0	1107	616.719948378047	0
0	1112	618.323051195285	1
0	1113	619.324971045396	0
0	1118	621.443211028414	1
0	1122	622.257049491531	2
0	1123	622.999086143301	1
0	1128	625.649027777577	2
0	1129	625.665726357453	1
0	1131	625.881799508909	0
0	1136	638.824879940751	1
0	1137	640.252147794216	0
0	1142	642.537822625293	1
0	1146	644.826138057824	2
0	1150	646.015162740615	3
0	1151	646.094698406446	2
0	1153	646.671809751109	1
0	1158	648.677078576841	2
0	1159	653.22130597926	1
0	1161	657.643886233138	0
0	1166	669.021113353765	1
0	1170	671.440192970382	2
0	1171	671.872838910012	1
0	1176	673.736323190893	2
0	1177	674.016859599891	1
0	1179	674.159895407089	0
0	1184	678.516363321996	1
0	1185	680.283145150862	0
0	1190	685.854761892165	1
0	1191	689.164461789864	0
0	1196	694.959026551051	1
0	1197	695.031455300862	0
0	1202	695.411148334958	1
0	1206	695.460947219775	2
0	1207	695.796471745612	1
0	1212	701.337081779074	2
0	1216	701.768791652164	3
0	1217	701.881905095294	2
0	1219	702.353504352206	1
0	1221	703.402344856462	0
0	1226	707.410776561597	1
0	1227	708.880486030692	0
0	1232	712.600492300898	1
0	1233	713.704851884322	0
0	1238	717.037162610023	1
0	1242	718.895332278301	2
0	1243	720.742441825264	1
0	1245	720.752278018959	0
0	1250	724.123195561275	1
0	1254	727.886698531655	2
0	1255	728.887052538609	1
0	1257	731.089791843401	0
0	1262	731.364400421186	1
0	1263	732.199984821427	0
0	1268	733.067982886789	1
0	1272	738.571587070435	2
0	1273	738.61967959896	1
0	1278	739.018909799294	2
0	1279	739.438204631391	1
0	1281	740.449876102361	0
0	1286	741.547645075049	1
0	1290	745.289172938684	2
0	1291	747.006494611925	1
0	1296	747.140647337964	2
0	1297	749.618382706523	1
0	1299	750.637933280946	0
0	1304	754.490652191157	1
0	1308	756.556624302607	2
0	1309	758.742449046164	1
0	1314	759.772055684708	2
0	1315	761.157866054427	1
0	1317	762.813893347239	0
0	1322	770.090661268987	1
0	1326	770.355768152136	2
0	1327	771.507329737116	1
0	1329	772.016243138466	0
0	1334	776.277011307578	1
0	1335	780.263164349156	0
0	1340	782.152638783632	1
0	1344	782.263385787657	2
0	1345	783.188842688778	1
0	1350	783.386748864082	2
0	1351	783.82742178737	1
0	1356	784.954653138521	2
0	1357	785.094238488545	1
0	1359	789.257969166612	0
0	1364	790.699461134544	1
0	1368	791.066390782379	2
0	1369	791.165496206367	1
0	1371	791.920551948202	0
0	1376	792.336415349135	1
0	1380	798.386466849847	2
0	1381	799.405727167726	1
0	1386	799.523463960919	2
0	1387	801.381843751324	1
0	1392	803.727422125083	2
0	1396	803.948349890371	3
0	1397	806.010276778439	2
0	1399	806.064103487527	1
0	1404	807.490166145168	2
0	1408	808.244522074896	3
0	1412	808.383500403518	4
0	1416	808.935232063385	5
0	1417	809.654923160191	4
0	1419	809.747952991638	3
0	1421	812.775380632998	2
0	1426	813.887070615979	3
0	1427	814.531929715139	2
0	1429	815.739964034869	1
0	1431	815.914201539118	0
0	1436	828.450235732575	1
0	1437	828.669507385029	0
0	1442	829.316072281584	1
0	1443	830.805707484665	0
0	1448	833.554975145418	1
0	1452	840.571369239842	2
0	1453	840.931017901518	1
0	1458	842.296939853559	2
0	1462	842.64153839265	3
0	1463	842.832017664433	2
0	1465	843.059785204766	1
0	1470	845.209461947482	2
0	1474	848.673988724899	3
0	1478	848.674619335868	4
0	1479	849.912893257814	3
0	1484	850.177541941673	4
0	1488	850.189173052127	5
0	1489	851.804487681066	4
0	1491	853.221202192165	3
0	1493	854.981139020088	2
0	1495	855.04747053368	1
0	1497	855.292250490913	0
0	1502	855.928382249942	1
0	1503	856.214360627144	0
0	1508	856.909035541528	1
0	1512	858.381949312896	2
0	1516	858.590479490438	3
0	1520	859.185621615873	4
0	1521	859.83799157596	3
0	1523	860.403565445508	2
0	1525	863.190681226879	1
0	1527	865.151651258985	0
0	1532	870.428150024771	1
0	1533	870.528603845062	0
0	1538	871.385128760067	1
0	1539	873.239406255046	0
0	1544	875.404495685638	1
0	1545	876.41320313928	0
0	1550	879.121724327471	1
0	1551	879.368894114609	0
0	1556	880.646352647657	1
0	1557	882.009795649615	0
0	1562	883.843887377517	1
0	1563	884.463294314111	0
0	1568	887.874313555842	1
0	1572	888.814969790229	2
0	1573	891.227623936361	1
0	1575	892.796631550207	0
0	1580	893.531881345251	1
0	1584	893.565232622582	2
0	1585	893.933353507799	1
0	1587	894.76196956428	0
0	1592	895.77750943619	1
0	1593	895.954249562632	0
0	1598	896.691254679829	1
0	1602	897.334275168771	2
0	1603	899.82092767259	1
0	1605	903.072989219832	0
0	1610	912.53132874322	1
0	1611	913.153634058366	0
0	1616	917.146630792198	1
0	1617	918.07918043468	0
0	1622	925.153686258567	1
0	1626	925.43461118322	2
0	1627	926.011629121989	1
0	1632	927.892548244597	2
0	1633	928.614165192807	1
0	1638	930.574290560556	2
0	1642	932.776898031189	3
0	1643	932.836306990952	2
0	1645	935.580500158703	1
0	1650	937.290315934304	2
0	1651	937.360569106224	1
0	1656	937.501369240158	2
0	1657	938.410311885773	1
0	1662	939.866174659335	2
0	1663	940.632640270507	1
0	1665	941.421206867601	0
0	1670	949.783503570161	1
0	1671	951.323287313234	0
0	1676	958.288255291489	1
0	1677	958.600078982594	0
0	1682	962.74603979792	1
0	1686	963.0758289046	2
0	1687	963.606942674446	1
0	1689	967.095624383967	0
0	1694	981.712756990545	1
0	1698	984.380408138346	2
0	1699	984.965072709532	1
0	1701	985.625427460649	0
0	1706	988.001414660015	1
0	1707	988.838463046703	0
0	1712	996.775779839597	1
0	1716	996.876817640766	2
0	1717	997.620238166154	1
0	1719	998.935397819094	0
1	236	100.483553130808	16
1	238	103.40173251032	17
1	240	109.528418498267	16
1	244	109.539249696052	17
1	246	116.695584909073	16
1	250	117.450986137156	15
1	254	117.621612815158	14
1	258	118.573359702636	15
1	260	118.683252470238	16
1	262	119.921344409562	17
1	264	129.302562630819	16
1	268	135.099605340393	15
1	272	137.586516611661	16
1	274	141.375475562128	17
1	276	142.815927498739	16
1	280	146.314496598742	15
1	284	146.999806735917	16
1	286	148.190940742053	17
1	288	156.822052075736	16
1	292	160.065711771569	15
1	296	160.184184634811	16
1	298	160.473232832179	17
1	300	164.679623844557	16
1	304	165.513804623316	15
1	308	165.87288505265	14
1	312	167.142712963293	15
1	314	168.09512750775	16
1	316	169.076007719051	15
1	320	170.416935109721	14
1	324	172.867643600181	15
1	326	177.786102928841	16
1	328	179.058916505192	15
1	332	181.66623880864	16
1	334	181.740409071219	17
1	336	183.358231548022	16
1	340	184.552864016005	15
1	344	185.991459122908	14
1	348	187.198948675814	15
1	350	187.207857198595	16
1	352	188.865209913814	15
1	356	190.50484562409	14
1	360	190.799777288141	15
1	362	192.261343807961	16
1	364	194.467871516214	17
1	366	196.26501194901	16
1	370	200.083562044475	15
1	374	200.193536444438	16
1	376	202.307544041916	15
1	380	203.063339144449	16
1	382	203.160989411516	15
1	386	203.247562680085	14
1	390	204.389549389076	15
1	392	206.76839961826	16
1	394	208.272210834499	17
1	396	212.106038969016	16
1	400	213.733017768398	17
1	402	216.217208653884	16
1	406	216.904175023485	17
1	408	219.110122689306	16
1	412	219.231446302505	17
1	414	220.171001671575	16
1	418	222.901336404917	17
1	420	222.981207560329	16
1	424	227.184973508701	15
1	428	229.313174462064	14
1	432	230.06969719893	13
1	436	231.42047465198	14
1	438	232.194771508659	13
1	442	234.412723871645	12
1	446	234.816330357081	13
1	448	234.827082857421	14
1	450	235.613758035978	13
1	454	235.986709173071	14
1	456	237.285434720377	15
1	458	237.862328285542	16
1	460	238.068674779248	15
1	464	238.290810204342	16
1	466	238.844090719171	15
1	470	241.952306401381	14
1	474	242.331997995154	15
1	476	243.641340505183	14
1	480	243.862621001862	15
1	482	246.123368220347	16
1	484	246.897567418439	15
1	488	247.636995926111	14
1	492	248.201628672662	15
1	494	248.809902121874	16
1	496	248.867324918895	15
1	500	248.889934109374	16
1	502	249.310909230186	17
1	504	250.339014981302	16
1	508	252.048566228076	17
1	510	257.242243723272	16
1	514	259.264185108825	15
1	518	261.563178983429	14
1	522	261.851201262857	13
1	526	262.186191335516	14
1	528	262.48540768376	13
1	532	262.748909208809	14
1	534	262.942133916071	13
1	538	263.230970226172	14
1	540	263.984224121367	15
1	542	265.617312466736	14
1	546	266.220148987822	15
1	548	266.249929410556	14
1	552	266.261291994192	15
1	554	266.639639455101	16
1	556	266.751894294533	15
1	560	268.069463592243	16
1	562	269.131320223243	17
1	564	274.202542116973	16
1	568	275.28263404539	17
1	570	276.882337685442	16
1	574	278.274682471609	17
1	576	278.635197788319	16
1	580	279.223584096377	15
1	584	281.51202163435	16
1	586	281.625010350591	17
1	588	289.449230695554	16
1	592	291.017130063741	17
1	594	301.90247847551	16
1	598	303.229423017109	17
1	600	306.840018781284	16
1	604	308.667683302687	17
1	606	314.831386639371	16
1	610	317.12784399801	15
1	614	317.661080752937	16
1	616	317.970931733471	17
1	618	319.738996619797	16
1	622	319.979076411259	15
1	626	321.791313878133	14
1	630	322.697972322737	15
1	632	323.40821168915	14
1	636	323.413335656793	15
1	638	324.346216126764	16
1	640	326.813146652735	15
1	644	328.432445094787	16
1	646	330.326132151392	17
1	648	330.791386430314	16
1	652	332.314138545914	15
1	656	335.682278770195	16
1	658	336.251653971155	17
1	660	336.801585956145	16
1	664	337.371194185603	17
1	666	341.805950561051	16
1	670	343.725898061522	17
1	672	346.823115162882	16
1	676	347.191669838845	15
1	680	347.879277956958	14
1	684	348.165740560337	15
1	686	348.947558296726	16
1	688	350.632675811833	17
1	690	352.335859946693	16
1	694	352.348216809425	17
1	696	354.38447709025	16
1	700	356.568816478833	17
1	702	368.024582736403	16
1	706	368.269675216954	17
1	708	370.013650078589	16
1	712	371.895685585674	17
1	714	376.507089531122	16
1	718	376.58247674977	17
1	720	377.988063975287	16
1	724	379.062681818254	15
1	728	379.595838206169	16
1	730	380.476351731975	15
1	734	382.976618446521	16
1	736	391.615710271842	17
1	738	393.722002035948	16
1	742	397.263925092687	15
1	746	398.660040708859	16
1	748	401.450906325039	17
1	750	404.329767086186	16
1	754	406.909213469202	17
1	756	408.331111959235	16
1	760	412.415016138644	17
1	762	413.305523062436	16
1	766	415.2836426617	15
1	770	416.809507960173	16
1	772	418.363517568272	15
1	776	418.373778795842	16
1	778	420.33276624753	17
1	780	420.674493054976	16
1	784	420.750692285097	15
1	788	421.033692279878	14
1	792	421.094389618546	15
1	794	422.108676944921	14
1	798	422.915649711222	15
1	800	425.787235526719	16
1	802	426.100240428599	17
1	804	430.134119098603	16
1	808	430.237013206932	17
1	810	433.079349917109	16
1	814	433.21472208798	17
1	816	439.724350304981	16
1	820	440.28217077731	17
1	822	441.314256420512	16
1	826	442.127557458838	17
1	828	451.707790884789	16
1	832	452.030278104043	15
1	836	455.015871009748	16
1	838	456.660159253899	15
1	842	458.287081971314	14
1	846	458.932649764553	15
1	848	460.143459125053	16
1	850	462.391441640143	17
1	852	465.528264206752	16
1	856	466.148481559191	15
1	860	466.694102376206	16
1	862	467.359610120946	15
1	866	469.404693786093	16
1	868	470.874737515566	15
1	872	475.003115196795	16
1	874	475.507685412486	15
1	878	476.047835684402	16
1	880	476.111850262482	17
1	882	483.307243855391	16
1	886	485.317143262925	17
1	888	488.883698823638	16
1	892	490.689249406693	15
1	896	490.900569218224	14
1	900	491.028341484469	15
1	902	492.064042202165	16
1	904	492.526457296147	17
1	906	496.659497287352	16
1	910	499.055992866034	15
1	914	499.91587973334	16
1	916	502.353751212651	15
1	920	502.867673672889	16
1	922	506.904005898569	15
1	926	508.099311943406	16
1	928	510.393023035637	15
1	932	510.876217931529	16
1	934	514.238398733729	17
1	936	514.38780773087	16
1	940	517.291024018234	17
1	942	520.937787479033	16
1	946	520.975683200327	15
1	950	524.570442199602	14
1	954	524.801843589554	13
1	958	524.847268285335	14
1	960	525.366469406301	15
1	962	525.809808862424	14
1	966	525.974417749076	15
1	968	526.150033441189	14
1	972	526.57714325576	15
1	974	526.665984115274	16
1	976	527.605235030915	15
1	980	527.606563459033	14
1	984	529.020949025529	15
1	986	531.806704435398	16
1	988	539.634811846987	17
1	990	540.176406779166	16
1	994	542.376011534504	17
1	996	546.738738740053	16
1	1000	547.595848582793	15
1	1004	549.734612294346	14
1	1008	549.879467328134	15
1	1010	550.584264124367	16
1	1012	551.679964412521	17
1	1014	553.605899496918	16
1	1018	556.764325043784	17
1	1020	558.324186472488	16
1	1024	561.117364495142	17
1	1026	563.285547902869	16
1	1030	564.86443566302	17
1	1032	565.974347893476	16
1	1036	566.107071791626	15
1	1040	567.176115457853	16
1	1042	569.143824061948	17
1	1044	571.561644011759	16
1	1048	572.881226999553	17
1	1050	572.98055978218	16
1	1054	574.415173660907	17
1	1056	577.16082219974	16
1	1060	578.81711352768	17
1	1062	593.323502331965	16
1	1066	593.754982539607	17
1	1068	598.39104771323	16
1	1072	598.773062461072	15
1	1076	598.9970115476	16
1	1078	599.369471402949	17
1	1080	600.77102828268	16
1	1084	601.615502518935	17
1	1086	604.916038239731	16
1	1090	607.424852543725	17
1	1092	609.626009542764	16
1	1096	611.146151724503	17
1	1098	614.178446986059	16
1	1102	615.263574142243	15
1	1106	615.509268702759	16
1	1108	616.719948378047	17
1	1110	618.323051195285	16
1	1114	619.324971045396	17
1	1116	621.443211028414	16
1	1120	622.257049491531	15
1	1124	622.999086143301	16
1	1126	625.649027777577	15
1	1130	625.665726357453	16
1	1132	625.881799508909	17
1	1134	638.824879940751	16
1	1138	640.252147794216	17
1	1140	642.537822625293	16
1	1144	644.826138057824	15
1	1148	646.015162740615	14
1	1152	646.094698406446	15
1	1154	646.671809751109	16
1	1156	648.677078576841	15
1	1160	653.22130597926	16
1	1162	657.643886233138	17
1	1164	669.021113353765	16
1	1168	671.440192970382	15
1	1172	671.872838910012	16
1	1174	673.736323190893	15
1	1178	674.016859599891	16
1	1180	674.159895407089	17
1	1182	678.516363321996	16
1	1186	680.283145150862	17
1	1188	685.854761892165	16
1	1192	689.164461789864	17
1	1194	694.959026551051	16
1	1198	695.031455300862	17
1	1200	695.411148334958	16
1	1204	695.460947219775	15
1	1208	695.796471745612	16
1	1210	701.337081779074	15
1	1214	701.768791652164	14
1	1218	701.881905095294	15
1	1220	702.353504352206	16
1	1222	703.402344856462	17
1	1224	707.410776561597	16
1	1228	708.880486030692	17
1	1230	712.600492300898	16
1	1234	713.704851884322	17
1	1236	717.037162610023	16
1	1240	718.895332278301	15
1	1244	720.742441825264	16
1	1246	720.752278018959	17
1	1248	724.123195561275	16
1	1252	727.886698531655	15
1	1256	728.887052538609	16
1	1258	731.089791843401	17
1	1260	731.364400421186	16
1	1264	732.199984821427	17
1	1266	733.067982886789	16
1	1270	738.571587070435	15
1	1274	738.61967959896	16
1	1276	739.018909799294	15
1	1280	739.438204631391	16
1	1282	740.449876102361	17
1	1284	741.547645075049	16
1	1288	745.289172938684	15
1	1292	747.006494611925	16
1	1294	747.140647337964	15
1	1298	749.618382706523	16
1	1300	750.637933280946	17
1	1302	754.490652191157	16
1	1306	756.556624302607	15
1	1310	758.742449046164	16
1	1312	759.772055684708	15
1	1316	761.157866054427	16
1	1318	762.813893347239	17
1	1320	770.090661268987	16
1	1324	770.355768152136	15
1	1328	771.507329737116	16
1	1330	772.016243138466	17
1	1332	776.277011307578	16
1	1336	780.263164349156	17
1	1338	782.152638783632	16
1	1342	782.263385787657	15
1	1346	783.188842688778	16
1	1348	783.386748864082	15
1	1352	783.82742178737	16
1	1354	784.954653138521	15
1	1358	785.094238488545	16
1	1360	789.257969166612	17
1	1362	790.699461134544	16
1	1366	791.066390782379	15
1	1370	791.165496206367	16
1	1372	791.920551948202	17
1	1374	792.336415349135	16
1	1378	798.386466849847	15
1	1382	799.405727167726	16
1	1384	799.523463960919	15
1	1388	801.381843751324	16
1	1390	803.727422125083	15
1	1394	803.948349890371	14
1	1398	806.010276778439	15
1	1400	806.064103487527	16
1	1402	807.490166145168	15
1	1406	808.244522074896	14
1	1410	808.383500403518	13
1	1414	808.935232063385	12
1	1418	809.654923160191	13
1	1420	809.747952991638	14
1	1422	812.775380632998	15
1	1424	813.887070615979	14
1	1428	814.531929715139	15
1	1430	815.739964034869	16
1	1432	815.914201539118	17
1	1434	828.450235732575	16
1	1438	828.669507385029	17
1	1440	829.316072281584	16
1	1444	830.805707484665	17
1	1446	833.554975145418	16
1	1450	840.571369239842	15
1	1454	840.931017901518	16
1	1456	842.296939853559	15
1	1460	842.64153839265	14
1	1464	842.832017664433	15
1	1466	843.059785204766	16
1	1468	845.209461947482	15
1	1472	848.673988724899	14
1	1476	848.674619335868	13
1	1480	849.912893257814	14
1	1482	850.177541941673	13
1	1486	850.189173052127	12
1	1490	851.804487681066	13
1	1492	853.221202192165	14
1	1494	854.981139020088	15
1	1496	855.04747053368	16
1	1498	855.292250490913	17
1	1500	855.928382249942	16
1	1504	856.214360627144	17
1	1506	856.909035541528	16
1	1510	858.381949312896	15
1	1514	858.590479490438	14
1	1518	859.185621615873	13
1	1522	859.83799157596	14
1	1524	860.403565445508	15
1	1526	863.190681226879	16
1	1528	865.151651258985	17
1	1530	870.428150024771	16
1	1534	870.528603845062	17
1	1536	871.385128760067	16
1	1540	873.239406255046	17
1	1542	875.404495685638	16
1	1546	876.41320313928	17
1	1548	879.121724327471	16
1	1552	879.368894114609	17
1	1554	880.646352647657	16
1	1558	882.009795649615	17
1	1560	883.843887377517	16
1	1564	884.463294314111	17
1	1566	887.874313555842	16
1	1570	888.814969790229	15
1	1574	891.227623936361	16
1	1576	892.796631550207	17
1	1578	893.531881345251	16
1	1582	893.565232622582	15
1	1586	893.933353507799	16
1	1588	894.76196956428	17
1	1590	895.77750943619	16
1	1594	895.954249562632	17
1	1596	896.691254679829	16
1	1600	897.334275168771	15
1	1604	899.82092767259	16
1	1606	903.072989219832	17
1	1608	912.53132874322	16
1	1612	913.153634058366	17
1	1614	917.146630792198	16
1	1618	918.07918043468	17
1	1620	925.153686258567	16
1	1624	925.43461118322	15
1	1628	926.011629121989	16
1	1630	927.892548244597	15
1	1634	928.614165192807	16
1	1636	930.574290560556	15
1	1640	932.776898031189	14
1	1644	932.836306990952	15
1	1646	935.580500158703	16
1	1648	937.290315934304	15
1	1652	937.360569106224	16
1	1654	937.501369240158	15
1	1658	938.410311885773	16
1	1660	939.866174659335	15
1	1664	940.632640270507	16
1	1666	941.421206867601	17
1	1668	949.783503570161	16
1	1672	951.323287313234	17
1	1674	958.288255291489	16
1	1678	958.600078982594	17
1	1680	962.74603979792	16
1	1684	963.0758289046	15
1	1688	963.606942674446	16
1	1690	967.095624383967	17
1	1692	981.712756990545	16
1	1696	984.380408138346	15
1	1700	984.965072709532	16
1	1702	985.625427460649	17
1	1704	988.001414660015	16
1	1708	988.838463046703	17
1	1710	996.775779839597	16
1	1714	996.876817640766	15
1	1718	997.620238166154	16
1	1720	998.935397819094	17
2	239	109.528418498267	1
2	241	109.528418498267	2
2	245	116.695584909073	1
2	247	116.695584909073	2
2	249	117.450986137156	1
2	251	117.450986137156	2
2	253	117.621612815158	1
2	255	117.621612815158	2
2	263	129.302562630819	1
2	265	129.302562630819	2
2	267	135.099605340393	1
2	269	135.099605340393	2
2	275	142.815927498739	1
2	277	142.815927498739	2
2	279	146.314496598742	1
2	281	146.314496598742	2
2	287	156.822052075736	1
2	289	156.822052075736	2
2	291	160.065711771569	1
2	293	160.065711771569	2
2	299	164.679623844557	1
2	301	164.679623844557	2
2	303	165.513804623316	1
2	305	165.513804623316	2
2	307	165.87288505265	1
2	309	165.87288505265	2
2	315	169.076007719051	1
2	317	169.076007719051	2
2	319	170.416935109721	1
2	321	170.416935109721	2
2	327	179.058916505192	1
2	329	179.058916505192	2
2	335	183.358231548022	1
2	337	183.358231548022	2
2	339	184.552864016005	1
2	341	184.552864016005	2
2	343	185.991459122908	1
2	345	185.991459122908	2
2	351	188.865209913814	1
2	353	188.865209913814	2
2	355	190.50484562409	1
2	357	190.50484562409	2
2	365	196.26501194901	1
2	367	196.26501194901	2
2	369	200.083562044475	1
2	371	200.083562044475	2
2	375	202.307544041916	1
2	377	202.307544041916	2
2	381	203.160989411516	1
2	383	203.160989411516	2
2	385	203.247562680085	1
2	387	203.247562680085	2
2	395	212.106038969016	1
2	397	212.106038969016	2
2	401	216.217208653884	1
2	403	216.217208653884	2
2	407	219.110122689306	1
2	409	219.110122689306	2
2	413	220.171001671575	1
2	415	220.171001671575	2
2	419	222.981207560329	1
2	421	222.981207560329	2
2	423	227.184973508701	1
2	425	227.184973508701	2
2	427	229.313174462064	1
2	429	229.313174462064	2
2	431	230.06969719893	1
2	433	230.06969719893	2
2	437	232.194771508659	1
2	439	232.194771508659	2
2	441	234.412723871645	1
2	443	234.412723871645	2
2	449	235.613758035978	1
2	451	235.613758035978	2
2	459	238.068674779248	1
2	461	238.068674779248	2
2	465	238.844090719171	1
2	467	238.844090719171	2
2	469	241.952306401381	1
2	471	241.952306401381	2
2	475	243.641340505183	1
2	477	243.641340505183	2
2	483	246.897567418439	1
2	485	246.897567418439	2
2	487	247.636995926111	1
2	489	247.636995926111	2
2	495	248.867324918895	1
2	497	248.867324918895	2
2	503	250.339014981302	1
2	505	250.339014981302	2
2	509	257.242243723272	1
2	511	257.242243723272	2
2	513	259.264185108825	1
2	515	259.264185108825	2
2	517	261.563178983429	1
2	519	261.563178983429	2
2	521	261.851201262857	1
2	523	261.851201262857	2
2	527	262.48540768376	1
2	529	262.48540768376	2
2	533	262.942133916071	1
2	535	262.942133916071	2
2	541	265.617312466736	1
2	543	265.617312466736	2