version 3
run General-19-20221103-10:28:22-6760
attr configname General
attr datetime 20221103-10:28:22
attr datetimef 20221103-102822
attr experiment General
attr inifile block.ini
attr iterationvars "$0=3, $1=10"
attr iterationvarsd 3/10
attr iterationvarsf 3,10-
attr measurement "$0=3, $1=10"
attr network Block
attr processid 6760
attr repetition 4
attr replication #4
attr resultdir results
attr runnumber 19
attr seedset 19
config network Block
config repeat 5
config sim-time-limit 1000s
config warmup-period 100s
config **.alloca.resourceModuleName "\"risorse\""
config **.dealloca.resourceModuleName "\"risorse\""
config **.is.delay exponential(3s)
config **.servente.serviceTime exponential(3s)
config **.dealloca.resourceAmount 2
config **.alloca.resourceAmount 2
config **.risorse.amount 6
config **.sorgente.numJobs (10)
config **.result-recording-modes all

vector 0 Block.servente queueLength:vector ETV
attr interpolationmode sample-hold
attr recordingmode vector
attr title "queue length"
vector 1 Block.servente queueingTime:vector ETV
attr interpolationmode none
attr recordingmode vector
attr title "queueing time at dequeue"
attr unit s
vector 2 Block.alloca queueLength:vector ETV
attr interpolationmode sample-hold
attr recordingmode vector
attr title "queue length"
vector 3 Block.alloca queueingTime:vector ETV
attr interpolationmode none
attr recordingmode vector
attr title "queueing time at dequeue"
attr unit s
vector 4 Block.risorse amount:vector ETV
attr interpolationmode sample-hold
attr recordingmode vector
attr title "available resource"
vector 5 Block.is delayedJobs:vector ETV
attr interpolationmode sample-hold
attr recordingmode vector
attr title "number of delayed jobs"
0	209	101.925215092473	1
0	211	101.925215092473	2
0	215	103.346990579908	1
0	217	103.346990579908	2
0	219	104.529923877616	1
0	221	104.529923877616	2
0	227	105.789124836562	1
0	229	105.789124836562	2
0	231	107.009925277405	1
0	233	107.009925277405	2
0	235	107.695205643073	1
0	237	107.695205643073	2
0	241	108.365774450364	1
0	243	108.365774450364	2
0	247	109.342523265371	1
0	249	109.342523265371	2
0	255	110.866234315685	1
0	257	110.866234315685	2
0	261	111.18354108404	1
0	263	111.18354108404	2
0	265	111.789540302914	1
0	267	111.789540302914	2
0	273	119.846148118637	1
0	275	119.846148118637	2
0	279	123.893358773792	1
0	281	123.893358773792	2
0	283	124.733129181364	1
0	285	124.733129181364	2
0	293	130.778318476119	1
0	295	130.778318476119	2
0	297	132.111040917789	1
0	299	132.111040917789	2
0	303	133.515962798253	1
0	305	133.515962798253	2
0	307	133.551277165556	1
0	309	133.551277165556	2
0	311	133.723981813606	1
0	313	133.723981813606	2
0	317	138.543266173145	1
0	319	138.543266173145	2
0	325	141.662082724261	1
0	327	141.662082724261	2
0	331	142.142743662295	1
0	333	142.142743662295	2
0	337	146.446459302866	1
0	339	146.446459302866	2
0	343	146.891456148845	1
0	345	146.891456148845	2
0	353	153.925038591712	1
0	355	153.925038591712	2
0	359	154.887950886403	1
0	361	154.887950886403	2
0	363	157.787305003738	1
0	365	157.787305003738	2
0	371	162.672241204841	1
0	373	162.672241204841	2
0	375	162.758532356954	1
0	377	162.758532356954	2
0	379	163.307296458535	1
0	381	163.307296458535	2
0	383	165.395014250082	1
0	385	165.395014250082	2
0	389	167.122404603338	1
0	391	167.122404603338	2
0	393	168.718260514025	1
0	395	168.718260514025	2
0	407	173.91236473816	1
0	409	173.91236473816	2
0	411	174.264706934397	1
0	413	174.264706934397	2
0	419	177.20178699723	1
0	421	177.20178699723	2
0	423	178.382339545093	1
0	425	178.382339545093	2
0	431	182.433954674344	1
0	433	182.433954674344	2
0	435	182.440025090868	1
0	437	182.440025090868	2
0	439	182.79678352223	1
0	441	182.79678352223	2
0	447	196.21573197212	1
0	449	196.21573197212	2
0	453	198.845293671089	1
0	455	198.845293671089	2
0	457	200.255397537925	1
0	459	200.255397537925	2
0	465	201.234803657084	1
0	467	201.234803657084	2
0	471	207.463791979374	1
0	473	207.463791979374	2
0	479	211.546602323784	1
0	481	211.546602323784	2
0	485	215.35089789431	1
0	487	215.35089789431	2
0	489	216.575922745512	1
0	491	216.575922745512	2
0	497	219.893399879079	1
0	499	219.893399879079	2
0	503	229.392482492838	1
0	505	229.392482492838	2
0	509	233.027002495637	1
0	511	233.027002495637	2
0	513	234.216850895075	1
0	515	234.216850895075	2
0	521	237.764459298244	1
0	523	237.764459298244	2
0	525	238.289394453276	1
0	527	238.289394453276	2
0	531	239.426502681124	1
0	533	239.426502681124	2
0	539	242.855993080669	1
0	541	242.855993080669	2
0	543	243.136534678162	1
0	545	243.136534678162	2
0	549	247.261943442446	1
0	551	247.261943442446	2
0	553	248.43819983904	1
0	555	248.43819983904	2
0	561	251.039332047783	1
0	563	251.039332047783	2
0	567	251.700469580679	1
0	569	251.700469580679	2
0	575	257.510169027289	1
0	577	257.510169027289	2
0	581	262.086614186618	1
0	583	262.086614186618	2
0	587	269.016167300542	1
0	589	269.016167300542	2
0	591	270.244504371804	1
0	593	270.244504371804	2
0	599	278.002320012374	1
0	601	278.002320012374	2
0	603	278.27283365053	1
0	605	278.27283365053	2
0	607	281.134002322409	1
0	609	281.134002322409	2
0	611	281.430172055052	1
0	613	281.430172055052	2
0	623	295.65133948618	1
0	625	295.65133948618	2
0	627	296.187652669047	1
0	629	296.187652669047	2
0	631	296.731749054454	1
0	633	296.731749054454	2
0	637	300.186708255	1
0	639	300.186708255	2
0	643	306.118921855417	1
0	645	306.118921855417	2
0	653	308.22272639562	1
0	655	308.22272639562	2
0	659	311.325134574023	1
0	661	311.325134574023	2
0	663	311.77896115693	1
0	665	311.77896115693	2
0	671	313.319581600641	1
0	673	313.319581600641	2
0	675	315.560600081016	1
0	677	315.560600081016	2
0	679	316.17370347872	1
0	681	316.17370347872	2
0	683	316.860621847101	1
0	685	316.860621847101	2
0	689	317.977013538452	1
0	691	317.977013538452	2
0	697	319.864382169757	1
0	699	319.864382169757	2
0	707	326.166296345417	1
0	709	326.166296345417	2
0	713	332.635367249788	1
0	715	332.635367249788	2
0	717	336.945484415987	1
0	719	336.945484415987	2
0	723	342.037106973607	1
0	725	342.037106973607	2
0	729	345.320269525974	1
0	731	345.320269525974	2
0	733	345.562883685005	1
0	735	345.562883685005	2
0	743	348.732695248424	1
0	745	348.732695248424	2
0	749	354.102996316152	1
0	751	354.102996316152	2
0	753	354.165661632594	1
0	755	354.165661632594	2
0	757	354.440553264569	1
0	759	354.440553264569	2
0	767	357.731248736119	1
0	769	357.731248736119	2
0	773	358.068739242543	1
0	775	358.068739242543	2
0	777	359.244730800368	1
0	779	359.244730800368	2
0	783	360.482933592792	1
0	785	360.482933592792	2
0	789	361.907421470225	1
0	791	361.907421470225	2
0	797	369.779595359767	1
0	799	369.779595359767	2
0	803	376.023734352776	1
0	805	376.023734352776	2
0	809	378.929841401686	1
0	811	378.929841401686	2
0	815	395.029538528872	1
0	817	395.029538528872	2
0	821	395.86340202043	1
0	823	395.86340202043	2
0	827	398.745479090537	1
0	829	398.745479090537	2
0	833	403.874921912395	1
0	835	403.874921912395	2
0	839	410.596829847923	1
0	841	410.596829847923	2
0	845	417.321131811493	1
0	847	417.321131811493	2
0	851	424.127310111081	1
0	853	424.127310111081	2
0	857	428.965777380301	1
0	859	428.965777380301	2
0	861	429.147042876177	1
0	863	429.147042876177	2
0	867	429.304049553788	1
0	869	429.304049553788	2
0	871	429.645534909759	1
0	873	429.645534909759	2
0	881	432.810239984529	1
0	883	432.810239984529	2
0	887	435.335266111329	1
0	889	435.335266111329	2
0	891	436.751888423969	1
0	893	436.751888423969	2
0	899	442.655061948893	1
0	901	442.655061948893	2
0	903	443.022976616481	1
0	905	443.022976616481	2
0	909	443.685236073981	1
0	911	443.685236073981	2
0	913	445.421279165089	1
0	915	445.421279165089	2
0	921	446.459663186242	1
0	923	446.459663186242	2
0	925	446.751589415117	1
0	927	446.751589415117	2
0	931	446.912774846317	1
0	933	446.912774846317	2
0	941	448.190753862095	1
0	943	448.190753862095	2
0	947	459.140891651949	1
0	949	459.140891651949	2
0	953	466.537621361506	1
0	955	466.537621361506	2
0	959	467.91186015282	1
0	961	467.91186015282	2
0	965	471.947364385453	1
0	967	471.947364385453	2
0	971	473.023752043283	1
0	973	473.023752043283	2
0	975	473.623756280576	1
0	977	473.623756280576	2
0	979	473.99324903263	1
0	981	473.99324903263	2
0	983	474.561880669943	1
0	985	474.561880669943	2
0	987	475.070729406655	1
0	989	475.070729406655	2
0	997	476.8830935578	1
0	999	476.8830935578	2
0	1005	479.163415695211	1
0	1007	479.163415695211	2
0	1013	481.818932842712	1
0	1015	481.818932842712	2
0	1017	482.042384819707	1
0	1019	482.042384819707	2
0	1021	485.157171345155	1
0	1023	485.157171345155	2
0	1031	491.919008030603	1
0	1033	491.919008030603	2
0	1037	504.528557367038	1
0	1039	504.528557367038	2
0	1043	512.237570937077	1
0	1045	512.237570937077	2
0	1049	512.493046776801	1
0	1051	512.493046776801	2
0	1055	515.11459253887	1
0	1057	515.11459253887	2
0	1061	517.129278245125	1
0	1063	517.129278245125	2
0	1065	518.71369491964	1
0	1067	518.71369491964	2
0	1071	522.03713245518	1
0	1073	522.03713245518	2
0	1079	530.616323523339	1
0	1081	530.616323523339	2
0	1083	530.628853378871	1
0	1085	530.628853378871	2
0	1091	532.011856897135	1
0	1093	532.011856897135	2
0	1095	532.912784026229	1
0	1097	532.912784026229	2
0	1099	535.728440349389	1
0	1101	535.728440349389	2
0	1103	536.39491909322	1
0	1105	536.39491909322	2
0	1111	536.717915695058	1
0	1113	536.717915695058	2
0	1119	540.206727343889	1
0	1121	540.206727343889	2
0	1123	540.26074235647	1
0	1125	540.26074235647	2
0	1133	548.88924237201	1
0	1135	548.88924237201	2
0	1137	549.842534987098	1
0	1139	549.842534987098	2
0	1145	552.428715138395	1
0	1147	552.428715138395	2
0	1151	556.495204265221	1
0	1153	556.495204265221	2
0	1157	557.779283812076	1
0	1159	557.779283812076	2
0	1163	564.316435099433	1
0	1165	564.316435099433	2
0	1167	565.085676518798	1
0	1169	565.085676518798	2
0	1175	567.186089370766	1
0	1177	567.186089370766	2
0	1181	567.947310339986	1
0	1183	567.947310339986	2
0	1185	568.628881227129	1
0	1187	568.628881227129	2
0	1189	569.023065232058	1
0	1191	569.023065232058	2
0	1199	573.572438515099	1
0	1201	573.572438515099	2
0	1205	576.112727045491	1
0	1207	576.112727045491	2
0	1211	580.329099003964	1
0	1213	580.329099003964	2
0	1217	581.511024805233	1
0	1219	581.511024805233	2
0	1223	587.298207538089	1
0	1225	587.298207538089	2
0	1229	590.41000846872	1
0	1231	590.41000846872	2
0	1235	593.228069264195	1
0	1237	593.228069264195	2
0	1241	595.159795951672	1
0	1243	595.159795951672	2
0	1245	595.614666456064	1
0	1247	595.614666456064	2
0	1251	597.833500523021	1
0	1253	597.833500523021	2
0	1255	598.262214152378	1
0	1257	598.262214152378	2
0	1259	600.021394758888	1
0	1261	600.021394758888	2
0	1265	600.831580286845	1
0	1267	600.831580286845	2
0	1271	603.360941238126	1
0	1273	603.360941238126	2
0	1283	607.788814453824	1
0	1285	607.788814453824	2
0	1287	609.055380768805	1
0	1289	609.055380768805	2
0	1295	611.150939230276	1
0	1297	611.150939230276	2
0	1299	612.179253736355	1
0	1301	612.179253736355	2
0	1305	613.741088342422	1
0	1307	613.741088342422	2
0	1311	615.596403233528	1
0	1313	615.596403233528	2
0	1315	620.253825378728	1
0	1317	620.253825378728	2
0	1325	624.96333915615	1
0	1327	624.96333915615	2
0	1329	627.367153231265	1
0	1331	627.367153231265	2
0	1335	628.676726573905	1
0	1337	628.676726573905	2
0	1341	630.685520518603	1
0	1343	630.685520518603	2
0	1349	633.447968462411	1
0	1351	633.447968462411	2
0	1355	638.356380036125	1
0	1357	638.356380036125	2
0	1359	638.380994639414	1
0	1361	638.380994639414	2
0	1365	644.125444361936	1
0	1367	644.125444361936	2
0	1369	647.79456330613	1
0	1371	647.79456330613	2
0	1377	649.070884303692	1
0	1379	649.070884303692	2
0	1383	649.826021288162	1
0	1385	649.826021288162	2
0	1387	650.116622377363	1
0	1389	650.116622377363	2
0	1397	654.484474727223	1
0	1399	654.484474727223	2
0	1403	663.17650755848	1
0	1405	663.17650755848	2
0	1409	666.628791744129	1
0	1411	666.628791744129	2
0	1413	666.772636216802	1
0	1415	666.772636216802	2
0	1421	670.950465330302	1
0	1423	670.950465330302	2
0	1425	671.775862139722	1
0	1427	671.775862139722	2
0	1433	673.054445917203	1
0	1435	673.054445917203	2
0	1439	681.140197352954	1
0	1441	681.140197352954	2
0	1443	681.207376814566	1
0	1445	681.207376814566	2
0	1451	684.922270645486	1
0	1453	684.922270645486	2
0	1455	685.118973015532	1
0	1457	685.118973015532	2
0	1461	689.817955695294	1
0	1463	689.817955695294	2
0	1465	690.485627672562	1
0	1467	690.485627672562	2
0	1469	693.24390923867	1
0	1471	693.24390923867	2
0	1481	696.778622873769	1
0	1483	696.778622873769	2
0	1487	703.634679055557	1
0	1489	703.634679055557	2
0	1491	706.008135727043	1
0	1493	706.008135727043	2
0	1495	706.029269405655	1
0	1497	706.029269405655	2
0	1501	706.520711122731	1
0	1503	706.520711122731	2
0	1511	710.431548694184	1
0	1513	710.431548694184	2
0	1517	720.0663541097	1
0	1519	720.0663541097	2
0	1521	720.829577382615	1
0	1523	720.829577382615	2
0	1525	721.976521619937	1
0	1527	721.976521619937	2
0	1531	723.713102294305	1
0	1533	723.713102294305	2
0	1537	724.685663467497	1
0	1539	724.685663467497	2
0	1541	725.074281504864	1
0	1543	725.074281504864	2
0	1545	725.57491683399	1
0	1547	725.57491683399	2
0	1559	736.667691154309	1
0	1561	736.667691154309	2
0	1565	740.596817768	1
0	1567	740.596817768	2
0	1571	742.664425568497	1
0	1573	742.664425568497	2
0	1577	747.865069357092	1
0	1579	747.865069357092	2
0	1581	748.571305572213	1
0	1583	748.571305572213	2
0	1585	749.486115494321	1
0	1587	749.486115494321	2
0	1589	750.472753433156	1
0	1591	750.472753433156	2
0	1593	750.845768170068	1
0	1595	750.845768170068	2
0	1601	752.197232134269	1
0	1603	752.197232134269	2
0	1613	757.63793079153	1
0	1615	757.63793079153	2
0	1617	758.001112589227	1
0	1619	758.001112589227	2
0	1621	759.822575346506	1
0	1623	759.822575346506	2
0	1627	762.280422300761	1
0	1629	762.280422300761	2
0	1637	766.716186948506	1
0	1639	766.716186948506	2
0	1643	767.492265178216	1
0	1645	767.492265178216	2
0	1649	772.777501452053	1
0	1651	772.777501452053	2
0	1655	774.936524039382	1
0	1657	774.936524039382	2
0	1659	775.813905831978	1
0	1661	775.813905831978	2
0	1663	775.932258952958	1
0	1665	775.932258952958	2
0	1673	781.785218175946	1
0	1675	781.785218175946	2
0	1677	782.924044183136	1
0	1679	782.924044183136	2
0	1685	787.308803781142	1
0	1687	787.308803781142	2
0	1691	789.180681256771	1
0	1693	789.180681256771	2
0	1697	795.233783491213	1
0	1699	795.233783491213	2
0	1703	808.388614571309	1
0	1705	808.388614571309	2
0	1709	812.181813586769	1
0	1711	812.181813586769	2
0	1713	816.617753638387	1
0	1715	816.617753638387	2
0	1719	818.637048093016	1
0	1721	818.637048093016	2
0	1723	820.646449126068	1
0	1725	820.646449126068	2
0	1731	826.479383430534	1
0	1733	826.479383430534	2
0	1737	827.723054737339	1
0	1739	827.723054737339	2
0	1743	828.774571641297	1
0	1745	828.774571641297	2
0	1747	828.796550074513	1
0	1749	828.796550074513	2
0	1755	832.560950213612	1
0	1757	832.560950213612	2
0	1759	832.60860620863	1
0	1761	832.60860620863	2
0	1767	835.60788586021	1
0	1769	835.60788586021	2
0	1771	835.664524797969	1
0	1773	835.664524797969	2
0	1775	835.854435818112	1
0	1777	835.854435818112	2
0	1779	835.866725752188	1
0	1781	835.866725752188	2
0	1787	840.59453144971	1
0	1789	840.59453144971	2
0	1793	841.860104492282	1
0	1795	841.860104492282	2
0	1803	845.315964580448	1
0	1805	845.315964580448	2
0	1811	852.227544399388	1
0	1813	852.227544399388	2
0	1817	852.86758497046	1
0	1819	852.86758497046	2
0	1823	854.545084349008	1
0	1825	854.545084349008	2
0	1827	857.694056497553	1
0	1829	857.694056497553	2
0	1831	859.596441986173	1
0	1833	859.596441986173	2
0	1841	866.416227215173	1
0	1843	866.416227215173	2
0	1845	866.655224257033	1
0	1847	866.655224257033	2
0	1851	867.458105175394	1
0	1853	867.458105175394	2
0	1859	872.482761111129	1
0	1861	872.482761111129	2
0	1865	874.831851011686	1
0	1867	874.831851011686	2
0	1871	881.102757194539	1
0	1873	881.102757194539	2
0	1875	881.994915129938	1
0	1877	881.994915129938	2
0	1879	882.23473941964	1
0	1881	882.23473941964	2
0	1885	883.398111931465	1
0	1887	883.398111931465	2
0	1893	885.427412488425	1
0	1895	885.427412488425	2
0	1897	885.681802454222	1
0	1899	885.681802454222	2
0	1907	886.284037207533	1
0	1909	886.284037207533	2
0	1913	890.09241041345	1
0	1915	890.09241041345	2
0	1917	893.232985223504	1
0	1919	893.232985223504	2
0	1923	893.825027036704	1
0	1925	893.825027036704	2
0	1927	894.446824712502	1
0	1929	894.446824712502	2
0	1933	898.427268615863	1
0	1935	898.427268615863	2
0	1943	907.854420907177	1
0	1945	907.854420907177	2
0	1947	912.245610152168	1
0	1949	912.245610152168	2
0	1955	917.745428136664	1
0	1957	917.745428136664	2
0	1959	922.319355496518	1
0	1961	922.319355496518	2
0	1963	923.254450227335	1
0	1965	923.254450227335	2
0	1973	933.587777596774	1
0	1975	933.587777596774	2
0	1979	935.991749019486	1
0	1981	935.991749019486	2
0	1983	936.247214230874	1
0	1985	936.247214230874	2
0	1989	939.599229099771	1
0	1991	939.599229099771	2
0	1995	944.860936074253	1
0	1997	944.860936074253	2
0	2001	949.369235074955	1
0	2003	949.369235074955	2
0	2007	950.330795485838	1
0	2009	950.330795485838	2
0	2011	950.789029030598	1
0	2013	950.789029030598	2
0	2017	951.859464645901	1
0	2019	951.859464645901	2
0	2023	953.101903037851	1
0	2025	953.101903037851	2
0	2031	957.173470988616	1
0	2033	957.173470988616	2
0	2037	957.604834690956	1
0	2039	957.604834690956	2
0	2045	959.337415348416	1
0	2047	959.337415348416	2
0	2051	964.692173563994	1
0	2053	964.692173563994	2
0	2057	966.664198880448	1
0	2059	966.664198880448	2
0	2063	970.079621191807	1
0	2065	970.079621191807	2
0	2069	971.214064113691	1
0	2071	971.214064113691	2
0	2073	971.682680368698	1
0	2075	971.682680368698	2
0	2079	984.577758678472	1
0	2081	984.577758678472	2
0	2087	993.331668327818	1
0	2089	993.331668327818	2
0	2091	995.956513340058	1
0	2093	995.956513340058	2
0	2095	998.801632791935	1
0	2097	998.801632791935	2
1	209	101.925215092473	6.979286170247
1	215	103.346990579908	8.141175579235
1	219	104.529923877616	2.604708785143
1	227	105.789124836562	2.442134256654
1	231	107.009925277405	2.480001399789
1	235	107.695205643073	1.906080806511
1	241	108.365774450364	1.355849172959
1	247	109.342523265371	1.647317622298
1	255	110.866234315685	2.500459865321
1	261	111.18354108404	1.841017818669
1	265	111.789540302914	0.923305987229
1	273	119.846148118637	8.662607034597
1	279	123.893358773792	12.103818470878
1	283	124.733129181364	4.886981062727
1	293	130.778318476119	6.884959702327
1	297	132.111040917789	7.377911736425
1	303	133.515962798253	2.737644322134
1	307	133.551277165556	1.440236247767
1	311	133.723981813606	0.208019015353
1	317	138.543266173145	4.991989007589
1	325	141.662082724261	7.938100910655
1	331	142.142743662295	3.59947748915
1	337	146.446459302866	4.784376578605
1	343	146.891456148845	4.74871248655
1	353	153.925038591712	7.478579288846
1	359	154.887950886403	7.996494737558
1	363	157.787305003738	3.862266412026
1	371	162.672241204841	7.784290318438
1	375	162.758532356954	4.971227353216
1	379	163.307296458535	0.635055253694
1	383	165.395014250082	2.636481893128
1	389	167.122404603338	3.815108144803
1	393	168.718260514025	3.323246263943
1	407	173.91236473816	6.789960134822
1	411	174.264706934397	5.546446420372
1	419	177.20178699723	3.28942225907
1	423	178.382339545093	4.117632610696
1	431	182.433954674344	5.232167677114
1	435	182.440025090868	4.057685545775
1	439	182.79678352223	0.362828847886
1	447	196.21573197212	13.775706881252
1	453	198.845293671089	16.048510148859
1	457	200.255397537925	4.039665565805
1	465	201.234803657084	2.389509985995
1	471	207.463791979374	7.208394441449
1	479	211.546602323784	10.3117986667
1	485	215.35089789431	7.887105914936
1	489	216.575922745512	5.029320421728
1	497	219.893399879079	4.542501984769
1	503	229.392482492838	12.816559747326
1	509	233.027002495637	13.133602616558
1	513	234.216850895075	4.824368402237
1	521	237.764459298244	4.737456802607
1	525	238.289394453276	4.072543558201
1	531	239.426502681124	1.66204338288
1	539	242.855993080669	4.566598627393
1	543	243.136534678162	3.710031997038
1	549	247.261943442446	4.405950361777
1	553	248.43819983904	5.301665160878
1	561	251.039332047783	3.777388605337
1	567	251.700469580679	3.262269741639
1	575	257.510169027289	6.470836979506
1	581	262.086614186618	10.386144605939
1	587	269.016167300542	11.505998273253
1	591	270.244504371804	8.157890185186
1	599	278.002320012374	8.986152711832
1	603	278.27283365053	8.028329278726
1	607	281.134002322409	3.131682310035
1	611	281.430172055052	3.157338404522
1	623	295.65133948618	14.517337163771
1	627	296.187652669047	14.757480613995
1	631	296.731749054454	1.080409568274
1	637	300.186708255	3.999055585953
1	643	306.118921855417	9.387172800963
1	653	308.22272639562	8.03601814062
1	659	311.325134574023	5.206212718606
1	663	311.77896115693	3.55623476131
1	671	313.319581600641	1.994447026618
1	675	315.560600081016	3.781638924086
1	679	316.17370347872	2.854121878079
1	683	316.860621847101	1.300021766085
1	689	317.977013538452	1.803310059732
1	697	319.864382169757	3.003760322656
1	707	326.166296345417	8.189282806965
1	713	332.635367249788	12.770985080031
1	717	336.945484415987	10.77918807057
1	723	342.037106973607	9.401739723819
1	729	345.320269525974	8.374785109987
1	733	345.562883685005	3.525776711398
1	743	348.732695248424	3.41242572245
1	749	354.102996316152	8.540112631147
1	753	354.165661632594	5.43296638417
1	757	354.440553264569	0.337556948417
1	767	357.731248736119	3.565587103525
1	773	358.068739242543	3.628185977974
1	777	359.244730800368	1.513482064249
1	783	360.482933592792	2.414194350249
1	789	361.907421470225	2.662690669857
1	797	369.779595359767	9.296661766975
1	803	376.023734352776	14.116312882551
1	809	378.929841401686	9.150246041919
1	815	395.029538528872	19.005804176096
1	821	395.86340202043	16.933560618744
1	827	398.745479090537	3.715940561665
1	833	403.874921912395	8.011519891965
1	839	410.596829847923	11.851350757386
1	845	417.321131811493	13.446209899098
1	851	424.127310111081	13.530480263158
1	857	428.965777380301	11.644645568808
1	861	429.147042876177	5.019732765096
1	867	429.304049553788	0.338272173487
1	871	429.645534909759	0.498492033582
1	881	432.810239984529	3.506190430741
1	887	435.335266111329	5.68973120157
1	891	436.751888423969	3.94164843944
1	899	442.655061948893	7.319795837564
1	903	443.022976616481	6.271088192512
1	909	443.685236073981	1.030174125088
1	913	445.421279165089	2.398302548608
1	921	446.459663186242	2.774427112261
1	925	446.751589415117	1.330310250028
1	931	446.912774846317	0.453111660075
1	941	448.190753862095	1.439164446978
1	947	459.140891651949	12.228116805632
1	953	466.537621361506	18.346867499411
1	959	467.91186015282	8.770968500871
1	965	471.947364385453	5.409743023947
1	971	473.023752043283	5.111891890463
1	975	473.623756280576	1.676391895123
1	979	473.99324903263	0.969496989347
1	983	474.561880669943	0.938124389367
1	987	475.070729406655	1.077480374025
1	997	476.8830935578	2.321212887857
1	1005	479.163415695211	4.092686288556
1	1013	481.818932842712	4.935839284912
1	1017	482.042384819707	2.878969124496
1	1021	485.157171345155	3.338238502443
1	1031	491.919008030603	9.876623210896
1	1037	504.528557367038	19.371386021883
1	1043	512.237570937077	20.318562906474
1	1049	512.493046776801	7.964489409763
1	1055	515.11459253887	2.877021601793
1	1061	517.129278245125	4.636231468324
1	1065	518.71369491964	3.59910238077
1	1071	522.03713245518	4.907854210055
1	1079	530.616323523339	11.902628603699
1	1083	530.628853378871	8.591720923691
1	1091	532.011856897135	1.395533373796
1	1095	532.912784026229	2.283930647358
1	1099	535.728440349389	3.716583452254
1	1103	536.39491909322	3.482135066991
1	1111	536.717915695058	0.989475345669
1	1119	540.206727343889	3.811808250669
1	1123	540.26074235647	3.542826661412
1	1133	548.88924237201	8.682515028121
1	1137	549.842534987098	9.581792630628
1	1145	552.428715138395	3.539472766385
1	1151	556.495204265221	6.652669278123
1	1157	557.779283812076	5.350568673681
1	1163	564.316435099433	7.821230834212
1	1167	565.085676518798	7.306392706722
1	1175	567.186089370766	2.869654271333
1	1181	567.947310339986	2.861633821188
1	1185	568.628881227129	1.442791856363
1	1189	569.023065232058	1.075754892072
1	1199	573.572438515099	4.94355728797
1	1205	576.112727045491	7.089661813433
1	1211	580.329099003964	6.756660488865
1	1217	581.511024805233	5.398297759742
1	1223	587.298207538089	6.969108534125
1	1229	590.41000846872	8.898983663487
1	1235	593.228069264195	5.929861726106
1	1241	595.159795951672	4.749787482952
1	1245	595.614666456064	2.386597191869
1	1251	597.833500523021	2.673704571349
1	1255	598.262214152378	2.647547696314
1	1259	600.021394758888	2.187894235867
1	1265	600.831580286845	2.569366134467
1	1271	603.360941238126	3.339546479238
1	1283	607.788814453824	6.957234166979
1	1287	609.055380768805	5.694439530679
1	1295	611.150939230276	3.362124776452
1	1299	612.179253736355	3.12387296755
1	1305	613.741088342422	2.590149112146
1	1311	615.596403233528	3.417149497173
1	1315	620.253825378728	6.512737036306
1	1325	624.96333915615	9.366935922622
1	1329	627.367153231265	7.113327852537
1	1335	628.676726573905	3.713387417755
1	1341	630.685520518603	3.318367287338
1	1349	633.447968462411	4.771241888506
1	1355	638.356380036125	7.670859517522
1	1359	638.380994639414	4.933026177003
1	1365	644.125444361936	5.769064325811
1	1369	647.79456330613	9.413568666716
1	1377	649.070884303692	4.945439941756
1	1383	649.826021288162	2.031457982032
1	1387	650.116622377363	1.045738073671
1	1397	654.484474727223	4.658453439061
1	1403	663.17650755848	13.059885181117
1	1409	666.628791744129	12.144317016906
1	1413	666.772636216802	3.596128658322
1	1421	670.950465330302	4.321673586173
1	1425	671.775862139722	5.00322592292
1	1433	673.054445917203	2.103980586901
1	1439	681.140197352954	9.364335213232
1	1443	681.207376814566	8.152930897363
1	1451	684.922270645486	3.782073292532
1	1455	685.118973015532	3.911596200966
1	1461	689.817955695294	4.895685049808
1	1465	690.485627672562	5.36665465703
1	1469	693.24390923867	3.425953543376
1	1481	696.778622873769	6.292995201207
1	1487	703.634679055557	10.390769816887
1	1491	706.008135727043	9.229512853274
1	1495	706.029269405655	2.394590350098
1	1501	706.520711122731	0.512575395688
1	1511	710.431548694184	4.402279288529
1	1517	720.0663541097	13.545642986969
1	1521	720.829577382615	10.398028688431
1	1525	721.976521619937	1.910167510237
1	1531	723.713102294305	2.88352491169
1	1537	724.685663467497	2.70914184756
1	1541	725.074281504864	1.361179210559
1	1545	725.57491683399	0.889253366493
1	1559	736.667691154309	11.593409649445
1	1565	740.596817768	15.02190093401
1	1571	742.664425568497	5.996734414188
1	1577	747.865069357092	7.268251589092
1	1581	748.571305572213	5.906880003716
1	1585	749.486115494321	1.621046137229
1	1589	750.472753433156	1.901447860943
1	1593	750.845768170068	1.359652675747
1	1601	752.197232134269	1.724478701113
1	1613	757.63793079153	6.792162621462
1	1617	758.001112589227	5.803880454958
1	1621	759.822575346506	2.184644554976
1	1627	762.280422300761	4.279309711534
1	1637	766.716186948506	6.893611602
1	1643	767.492265178216	5.211842877455
1	1649	772.777501452053	6.061314503547
1	1655	774.936524039382	7.444258861166
1	1659	775.813905831978	3.036404379925
1	1663	775.932258952958	0.995734913576
1	1673	781.785218175946	5.971312343968
1	1677	782.924044183136	6.991785230178
1	1685	787.308803781142	5.523585605196
1	1691	789.180681256771	6.256637073635
1	1697	795.233783491213	7.924979710071
1	1703	808.388614571309	19.207933314538
1	1709	812.181813586769	16.948030095556
1	1713	816.617753638387	8.229139067078
1	1719	818.637048093016	6.455234506247
1	1723	820.646449126068	4.028695487681
1	1731	826.479383430534	7.842335337518
1	1737	827.723054737339	7.076605611271
1	1743	828.774571641297	2.295188210763
1	1747	828.796550074513	1.073495337174
1	1755	832.560950213612	3.786378572315
1	1759	832.60860620863	3.812056134117
1	1767	835.60788586021	3.046935646598
1	1771	835.664524797969	3.055918589339
1	1775	835.854435818112	0.246549957902
1	1779	835.866725752188	0.202200954219
1	1787	840.59453144971	4.740095631598
1	1793	841.860104492282	5.993378740094
1	1803	845.315964580448	4.721433130738
1	1811	852.227544399388	10.367439907106
1	1817	852.86758497046	7.551620390012
1	1823	854.545084349008	2.31753994962
1	1827	857.694056497553	4.826471527093
1	1831	859.596441986173	5.051357637165
1	1841	866.416227215173	8.72217071762
1	1845	866.655224257033	7.05878227086
1	1851	867.458105175394	1.041877960221
1	1859	872.482761111129	5.827536854096
1	1865	874.831851011686	7.373745836292
1	1871	881.102757194539	8.61999608341
1	1875	881.994915129938	7.163064118252
1	1879	882.23473941964	1.131982225101
1	1885	883.398111931465	1.403196801527
1	1893	885.427412488425	3.192673068785
1	1897	885.681802454222	2.283690522757
1	1907	886.284037207533	0.856624719108
1	1913	890.09241041345	4.410607959228
1	1917	893.232985223504	6.948948015971
1	1923	893.825027036704	3.732616623254
1	1927	894.446824712502	1.213839488998
1	1933	898.427268615863	4.602241579159
1	1943	907.854420907177	13.407596194675
1	1947	912.245610152168	13.818341536305
1	1955	917.745428136664	9.891007229487
1	1959	922.319355496518	10.07374534435
1	1963	923.254450227335	5.509022090671
1	1973	933.587777596774	11.268422100256
1	1979	935.991749019486	12.737298792151
1	1983	936.247214230874	2.6594366341
1	1989	939.599229099771	3.607480080285
1	1995	944.860936074253	8.613721843379
1	2001	949.369235074955	9.770005975184
1	2007	950.330795485838	5.469859411585
1	2011	950.789029030598	1.419793955643
1	2017	951.859464645901	1.528669160063
1	2023	953.101903037851	2.312874007253
1	2031	957.173470988616	5.314006342715
1	2037	957.604834690956	4.502931653105
1	2045	959.337415348416	2.1639443598
1	2051	964.692173563994	7.087338873038
1	2057	966.664198880448	7.326783532032
1	2063	970.079621191807	5.387447627813
1	2069	971.214064113691	4.549865233243
1	2073	971.682680368698	1.603059176891
1	2079	984.577758678472	13.363694564781
1	2087	993.331668327818	21.64898795912
1	2091	995.956513340058	11.378754661586
1	2095	998.801632791935	5.469964464117
2	210	101.925215092473	6
2	214	102.493663168353	7