version 3
run General-34-20221103-10:28:22-6760
attr configname General
attr datetime 20221103-10:28:22
attr datetimef 20221103-102822
attr experiment General
attr inifile block.ini
attr iterationvars "$0=4, $1=10"
attr iterationvarsd 4/10
attr iterationvarsf 4,10-
attr measurement "$0=4, $1=10"
attr network Block
attr processid 6760
attr repetition 4
attr replication #4
attr resultdir results
attr runnumber 34
attr seedset 34
config network Block
config repeat 5
config sim-time-limit 1000s
config warmup-period 100s
config **.alloca.resourceModuleName "\"risorse\""
config **.dealloca.resourceModuleName "\"risorse\""
config **.is.delay exponential(3s)
config **.servente.serviceTime exponential(4s)
config **.dealloca.resourceAmount 2
config **.alloca.resourceAmount 2
config **.risorse.amount 6
config **.sorgente.numJobs (10)
config **.result-recording-modes all

vector 0 Block.is delayedJobs:vector ETV
attr interpolationmode sample-hold
attr recordingmode vector
attr title "number of delayed jobs"
vector 1 Block.alloca queueLength:vector ETV
attr interpolationmode sample-hold
attr recordingmode vector
attr title "queue length"
vector 2 Block.servente queueLength:vector ETV
attr interpolationmode sample-hold
attr recordingmode vector
attr title "queue length"
vector 3 Block.servente queueingTime:vector ETV
attr interpolationmode none
attr recordingmode vector
attr title "queueing time at dequeue"
attr unit s
vector 4 Block.alloca queueingTime:vector ETV
attr interpolationmode none
attr recordingmode vector
attr title "queueing time at dequeue"
attr unit s
vector 5 Block.risorse amount:vector ETV
attr interpolationmode sample-hold
attr recordingmode vector
attr title "available resource"
0	157	101.119169003782	1
0	159	104.475196614698	0
0	164	122.033484382358	1
0	165	122.545616012105	0
0	170	126.900047175871	1
0	174	126.945050862746	2
0	175	127.660226168999	1
0	177	128.661804012128	0
0	182	130.073392826187	1
0	183	130.649392919569	0
0	188	130.99096927664	1
0	189	133.160539540209	0
0	194	138.865972185218	1
0	195	145.5678800723	0
0	200	147.251442858241	1
0	201	154.969945723377	0
0	206	156.116342895432	1
0	210	157.331694152492	2
0	211	159.409080164017	1
0	213	161.539617137365	0
0	218	168.779468851686	1
0	222	172.590604060514	2
0	223	173.939972426306	1
0	228	179.535691841686	2
0	229	180.762601331502	1
0	231	184.287175874548	0
0	236	196.248302923712	1
0	237	198.105680404571	0
0	242	204.598500901938	1
0	243	205.903289906398	0
0	248	209.331133849984	1
0	249	209.675994408003	0
0	254	211.457884654379	1
0	258	215.347121337431	2
0	259	215.83841555365	1
0	264	222.849620297027	2
0	268	223.436372466319	3
0	269	223.828523645014	2
0	271	224.012635258205	1
0	276	225.911310820158	2
0	280	226.047239232937	3
0	281	226.806256346366	2
0	283	227.039598948345	1
0	285	229.04115069026	0
0	290	235.794050405106	1
0	294	236.143409772857	2
0	295	238.296419881519	1
0	300	240.021577390436	2
0	301	240.267363562131	1
0	303	240.650221056632	0
0	308	246.609765390741	1
0	309	246.714035918014	0
0	314	252.274223140725	1
0	315	254.779401495436	0
0	320	255.150300621699	1
0	321	255.636705488328	0
0	326	255.820145690289	1
0	330	256.478318489214	2
0	331	256.580496127135	1
0	336	256.58948335895	2
0	337	256.648327383813	1
0	342	257.564191398046	2
0	343	259.790165286928	1
0	348	260.74407580549	2
0	349	261.412583332919	1
0	351	263.345445464647	0
0	356	263.581162116549	1
0	360	264.650978753847	2
0	361	264.88631179662	1
0	366	265.983346130443	2
0	370	266.935307119513	3
0	374	268.349710410093	4
0	375	268.517173441755	3
0	377	269.015433790477	2
0	379	269.383617284336	1
0	384	271.902234495776	2
0	385	272.266094583045	1
0	387	273.839280479993	0
0	392	274.918333324014	1
0	393	275.491903343418	0
0	398	277.247303678129	1
0	402	281.999357030683	2
0	403	282.125249825883	1
0	405	286.418095097274	0
0	410	295.294373278124	1
0	414	296.341754068634	2
0	418	298.363772041924	3
0	419	301.01393497805	2
0	421	301.82830999183	1
0	426	302.609456101763	2
0	427	302.895763651926	1
0	429	308.114877453782	0
0	434	312.766709286096	1
0	438	317.226569345975	2
0	439	317.583315417567	1
0	441	322.682456831628	0
0	446	328.174745952856	1
0	447	328.311171498285	0
0	452	354.205996991603	1
0	456	355.203999795076	2
0	460	356.072024388528	3
0	461	358.302909155813	2
0	466	358.553135747193	3
0	470	359.871968591837	4
0	474	359.945245994253	5
0	475	361.079604822002	4
0	477	361.219979849519	3
0	479	361.53530022058	2
0	481	361.853959045339	1
0	483	364.309310343668	0
0	488	372.429626400048	1
0	492	376.185127601178	2
0	493	377.290050820479	1
0	495	384.768943744361	0
0	500	385.06024280741	1
0	501	385.596998168075	0
0	506	387.222607458111	1
0	507	390.114972264905	0
0	512	402.379197422805	1
0	513	402.450006723303	0
0	518	404.33854480255	1
0	519	404.584564640696	0
0	524	411.947033812396	1
0	528	414.398566349142	2
0	532	415.516033918042	3
0	533	417.847749060597	2
0	538	419.134081972009	3
0	539	421.966926150834	2
0	541	422.195322839158	1
0	546	424.34865417555	2
0	547	425.060695186306	1
0	549	425.108932452931	0
0	554	429.620452998476	1
0	555	431.693081504362	0
0	560	435.803612361549	1
0	564	440.082876603723	2
0	565	440.706186827395	1
0	570	441.303627276803	2
0	574	444.014120929495	3
0	575	445.883613768563	2
0	577	446.46192706848	1
0	579	446.86678830611	0
0	584	447.4415638561	1
0	585	450.088424929341	0
0	590	456.660717103196	1
0	594	458.358127104751	2
0	595	458.509176933331	1
0	597	459.332956583824	0
0	602	466.286210870102	1
0	606	469.481165896991	2
0	610	471.005929457251	3
0	611	471.455408842695	2
0	616	471.602139407792	3
0	620	471.700659809979	4
0	621	472.512080915197	3
0	626	474.38822825483	4
0	627	474.604110182853	3
0	629	474.770283924297	2
0	631	477.435393006649	1
0	636	478.416271579476	2
0	637	478.603774340188	1
0	642	480.223750933242	2
0	643	480.493816773016	1
0	645	484.569342876211	0
0	650	485.644585839178	1
0	654	490.070152085845	2
0	655	490.576158634983	1
0	657	492.039080631537	0
0	662	500.566038233476	1
0	666	502.343427178221	2
0	670	502.873287229115	3
0	674	505.775612220827	4
0	675	507.0278646954	3
0	677	507.377812170161	2
0	679	511.10674786128	1
0	684	515.186956845067	2
0	688	518.076494112936	3
0	689	518.572966638424	2
0	691	519.273979309146	1
0	696	520.470460825569	2
0	700	523.24558735362	3
0	701	523.63899066927	2
0	703	524.165304345721	1
0	705	525.032727638168	0
0	710	530.844916020055	1
0	711	534.17978948238	0
0	716	544.441572883342	1
0	717	546.952992047815	0
0	722	548.17887999863	1
0	723	548.268129104445	0
0	728	549.684796274613	1
0	732	556.054604738911	2
0	733	556.275248883297	1
0	738	558.935542390394	2
0	739	559.200454622201	1
0	741	560.101978648702	0
0	746	564.846452359888	1
0	747	564.857875593114	0
0	752	568.773536104586	1
0	753	569.328808205243	0
0	758	577.840275317388	1
0	759	578.200946516665	0
0	764	578.32444640517	1
0	765	578.557676386627	0
0	770	580.696777830092	1
0	771	580.928839344152	0
0	776	583.183567684725	1
0	780	583.702380000797	2
0	781	584.394344283328	1
0	783	585.08452880129	0
0	788	587.662571840546	1
0	792	588.094377180006	2
0	793	588.104002954006	1
0	795	588.566541565872	0
0	800	598.827107888869	1
0	801	599.257789396028	0
0	806	601.375774305589	1
0	807	601.969260180455	0
0	812	609.736887286565	1
0	813	610.113051123532	0
0	818	610.588789292385	1
0	822	612.849494124862	2
0	823	616.801695835988	1
0	828	617.319928181173	2
0	829	618.060467220813	1
0	831	618.076224051892	0
0	836	619.546019449682	1
0	837	619.586486611456	0
0	842	635.168927623593	1
0	843	635.688322744681	0
0	848	636.335874431314	1
0	849	636.373817012237	0
0	854	637.467575000509	1
0	858	638.892026150251	2
0	859	639.045712631791	1
0	864	640.244111677731	2
0	868	641.771124897677	3
0	869	641.881560220324	2
0	874	641.929677995872	3
0	875	642.02795232282	2
0	877	644.565882948877	1
0	882	645.00803613975	2
0	883	647.383300273205	1
0	888	653.608128647235	2
0	892	654.490351676508	3
0	893	656.084225120218	2
0	895	656.27297934141	1
0	900	657.39004339705	2
0	901	658.99878123164	1
0	906	661.020062269283	2
0	907	661.972662503863	1
0	912	667.594135478628	2
0	913	667.97701970159	1
0	915	672.617161366198	0
0	920	674.915183505717	1
0	924	675.570720924658	2
0	928	675.716320170247	3
0	929	676.172834022517	2
0	931	677.423413535389	1
0	936	680.167054646986	2
0	940	681.834938439897	3
0	941	683.121012148966	2
0	946	683.680759685446	3
0	950	684.929252984503	4
0	951	685.102768008373	3
0	956	685.202124292073	4
0	957	685.299149378304	3
0	959	686.593381054511	2
0	961	688.615418120839	1
0	963	691.038880373476	0
0	968	694.090880350359	1
0	969	696.041881102438	0
0	974	705.520657605613	1
0	978	708.296313864725	2
0	979	708.753261071469	1
0	981	709.18265312945	0
0	986	709.437189812568	1
0	987	709.455771252622	0
0	992	711.126246008836	1
0	996	711.147121959341	2
0	997	711.306838760097	1
0	999	711.65304890862	0
0	1004	713.325739597553	1
0	1008	715.987491364568	2
0	1009	718.47148369447	1
0	1014	720.314449112591	2
0	1015	720.601911944608	1
0	1017	720.819500164052	0
0	1022	721.500278811334	1
0	1026	721.699889567909	2
0	1027	722.394121810008	1
0	1032	723.022548556326	2
0	1036	723.763073305231	3
0	1037	724.378129781001	2
0	1039	725.175936724353	1
0	1044	727.295184816154	2
0	1045	729.699530629449	1
0	1047	731.390402837323	0
0	1052	739.002088666361	1
0	1053	739.753025319426	0
0	1058	745.239022068864	1
0	1062	751.200195568617	2
0	1066	751.408193465518	3
0	1067	751.462933900506	2
0	1072	752.022649886976	3
0	1073	752.695239703853	2
0	1075	753.326118455303	1
0	1080	756.423802089801	2
0	1084	757.013286785867	3
0	1085	757.825619963407	2
0	1087	758.396615751346	1
0	1089	760.27397575323	0
0	1094	763.52016978136	1
0	1095	763.917423668936	0
0	1100	767.757242494856	1
0	1101	770.431798188122	0
0	1106	773.145614014564	1
0	1110	773.24321787032	2
0	1111	774.369046334355	1
0	1113	775.213300110725	0
0	1118	780.010629685248	1
0	1119	781.62500873244	0
0	1124	783.169473770259	1
0	1125	785.015218966874	0
0	1130	790.153073586946	1
0	1134	790.499828998554	2
0	1138	790.654736650437	3
0	1139	790.822774998361	2
0	1141	790.834479959765	1
0	1143	794.337071608536	0
0	1148	794.978061974877	1
0	1149	801.020676879229	0
0	1154	804.708568112538	1
0	1155	804.874808666311	0
0	1160	807.759912087942	1
0	1164	812.014167094534	2
0	1165	812.924831541996	1
0	1170	813.225635367195	2
0	1171	815.652994799678	1
0	1173	818.11709752659	0
0	1178	819.862647165239	1
0	1179	820.276118092146	0
0	1184	831.114775255366	1
0	1185	832.491116710293	0
0	1190	836.807454048116	1
0	1194	837.613152091291	2
0	1195	839.568814564116	1
0	1197	840.24668250781	0
0	1202	840.466740800865	1
0	1203	840.712078740072	0
0	1208	859.962406176961	1
0	1209	861.764903342193	0
0	1214	864.516247769874	1
0	1218	870.930444456789	2
0	1219	872.481753407914	1
0	1221	875.242723199554	0
0	1226	875.791464524187	1
0	1230	876.266238476321	2
0	1234	877.497448871753	3
0	1235	880.399549453802	2
0	1237	882.280820336647	1
0	1242	882.594463265146	2
0	1243	883.819628299939	1
0	1248	884.400844319285	2
0	1249	886.344098377242	1
0	1251	886.628903748022	0
0	1256	894.979480518318	1
0	1260	897.326556604146	2
0	1264	900.567569557507	3
0	1265	900.575145104837	2
0	1270	900.948801653525	3
0	1271	901.998737707757	2
0	1273	902.212758087098	1
0	1278	902.61861566613	2
0	1279	903.082649981182	1
0	1281	903.923516386073	0
0	1286	907.450516954728	1
0	1290	907.656903934831	2
0	1291	908.637155152801	1
0	1296	908.908298064645	2
0	1297	909.997317009931	1
0	1302	910.596001709806	2
0	1306	911.264802796677	3
0	1307	911.282024982877	2
0	1309	915.585542454341	1
0	1314	916.099429653293	2
0	1315	919.179819105154	1
0	1317	923.884197908011	0
0	1322	925.101713029697	1
0	1326	925.459966481672	2
0	1330	927.727072207716	3
0	1331	927.729269282699	2
0	1333	927.755643539516	1
0	1335	928.499957335615	0
0	1340	928.875639984324	1
0	1341	931.293804786795	0
0	1346	931.638718055291	1
0	1350	932.149441185834	2
0	1351	933.842132036935	1
0	1353	935.052606486861	0
0	1358	939.860485256782	1
0	1359	941.421630125082	0
0	1364	944.807299819796	1
0	1365	949.973523697589	0
0	1370	952.617000628684	1
0	1371	954.407861467201	0
0	1376	960.539663794512	1
0	1380	964.307517669084	2
0	1384	964.74236275821	3
0	1385	967.104165103327	2
0	1387	968.440589021133	1
0	1389	969.713904741992	0
0	1394	971.698067632599	1
0	1398	975.669080835357	2
0	1399	975.958817721384	1
0	1401	978.099522482608	0
0	1406	978.730403129808	1
0	1410	980.264992457874	2
0	1411	981.608464028113	1
0	1416	982.627288459677	2
0	1420	982.774690653571	3
0	1424	983.147172596515	4
0	1425	984.932387994091	3
0	1427	985.256560538151	2
0	1429	988.85973990668	1
0	1431	989.388744906159	0
1	158	101.119169003782	6
1	160	104.475196614698	7
1	162	122.033484382358	6
1	166	122.545616012105	7
1	168	126.900047175871	6
1	172	126.945050862746	5
1	176	127.660226168999	6
1	178	128.661804012128	7
1	180	130.073392826187	6
1	184	130.649392919569	7
1	186	130.99096927664	6
1	190	133.160539540209	7
1	192	138.865972185218	6
1	196	145.5678800723	7
1	198	147.251442858241	6
1	202	154.969945723377	7
1	204	156.116342895432	6
1	208	157.331694152492	5
1	212	159.409080164017	6
1	214	161.539617137365	7
1	216	168.779468851686	6
1	220	172.590604060514	5
1	224	173.939972426306	6
1	226	179.535691841686	5
1	230	180.762601331502	6
1	232	184.287175874548	7
1	234	196.248302923712	6
1	238	198.105680404571	7
1	240	204.598500901938	6
1	244	205.903289906398	7
1	246	209.331133849984	6
1	250	209.675994408003	7
1	252	211.457884654379	6
1	256	215.347121337431	5
1	260	215.83841555365	6
1	262	222.849620297027	5
1	266	223.436372466319	4
1	270	223.828523645014	5
1	272	224.012635258205	6
1	274	225.911310820158	5
1	278	226.047239232937	4
1	282	226.806256346366	5
1	284	227.039598948345	6
1	286	229.04115069026	7
1	288	235.794050405106	6
1	292	236.143409772857	5
1	296	238.296419881519	6
1	298	240.021577390436	5
1	302	240.267363562131	6
1	304	240.650221056632	7
1	306	246.609765390741	6
1	310	246.714035918014	7
1	312	252.274223140725	6
1	316	254.779401495436	7
1	318	255.150300621699	6
1	322	255.636705488328	7
1	324	255.820145690289	6
1	328	256.478318489214	5
1	332	256.580496127135	6
1	334	256.58948335895	5
1	338	256.648327383813	6
1	340	257.564191398046	5
1	344	259.790165286928	6
1	346	260.74407580549	5
1	350	261.412583332919	6
1	352	263.345445464647	7
1	354	263.581162116549	6
1	358	264.650978753847	5
1	362	264.88631179662	6
1	364	265.983346130443	5
1	368	266.935307119513	4
1	372	268.349710410093	3
1	376	268.517173441755	4
1	378	269.015433790477	5
1	380	269.383617284336	6
1	382	271.902234495776	5
1	386	272.266094583045	6
1	388	273.839280479993	7
1	390	274.918333324014	6
1	394	275.491903343418	7
1	396	277.247303678129	6
1	400	281.999357030683	5
1	404	282.125249825883	6
1	406	286.418095097274	7
1	408	295.294373278124	6
1	412	296.341754068634	5
1	416	298.363772041924	4
1	420	301.01393497805	5
1	422	301.82830999183	6
1	424	302.609456101763	5
1	428	302.895763651926	6
1	430	308.114877453782	7
1	432	312.766709286096	6
1	436	317.226569345975	5
1	440	317.583315417567	6
1	442	322.682456831628	7
1	444	328.174745952856	6
1	448	328.311171498285	7
1	450	354.205996991603	6
1	454	355.203999795076	5
1	458	356.072024388528	4
1	462	358.302909155813	5
1	464	358.553135747193	4
1	468	359.871968591837	3
1	472	359.945245994253	2
1	476	361.079604822002	3
1	478	361.219979849519	4
1	480	361.53530022058	5
1	482	361.853959045339	6
1	484	364.309310343668	7
1	486	372.429626400048	6
1	490	376.185127601178	5
1	494	377.290050820479	6
1	496	384.768943744361	7
1	498	385.06024280741	6
1	502	385.596998168075	7
1	504	387.222607458111	6
1	508	390.114972264905	7
1	510	402.379197422805	6
1	514	402.450006723303	7
1	516	404.33854480255	6
1	520	404.584564640696	7
1	522	411.947033812396	6
1	526	414.398566349142	5
1	530	415.516033918042	4
1	534	417.847749060597	5
1	536	419.134081972009	4
1	540	421.966926150834	5
1	542	422.195322839158	6
1	544	424.34865417555	5
1	548	425.060695186306	6
1	550	425.108932452931	7
1	552	429.620452998476	6
1	556	431.693081504362	7
1	558	435.803612361549	6
1	562	440.082876603723	5
1	566	440.706186827395	6
1	568	441.303627276803	5
1	572	444.014120929495	4
1	576	445.883613768563	5
1	578	446.46192706848	6
1	580	446.86678830611	7
1	582	447.4415638561	6
1	586	450.088424929341	7
1	588	456.660717103196	6
1	592	458.358127104751	5
1	596	458.509176933331	6
1	598	459.332956583824	7
1	600	466.286210870102	6
1	604	469.481165896991	5
1	608	471.005929457251	4
1	612	471.455408842695	5
1	614	471.602139407792	4
1	618	471.700659809979	3
1	622	472.512080915197	4
1	624	474.38822825483	3
1	628	474.604110182853	4
1	630	474.770283924297	5
1	632	477.435393006649	6
1	634	478.416271579476	5
1	638	478.603774340188	6
1	640	480.223750933242	5
1	644	480.493816773016	6
1	646	484.569342876211	7
1	648	485.644585839178	6
1	652	490.070152085845	5
1	656	490.576158634983	6
1	658	492.039080631537	7
1	660	500.566038233476	6
1	664	502.343427178221	5
1	668	502.873287229115	4
1	672	505.775612220827	3
1	676	507.0278646954	4
1	678	507.377812170161	5
1	680	511.10674786128	6
1	682	515.186956845067	5
1	686	518.076494112936	4
1	690	518.572966638424	5
1	692	519.273979309146	6
1	694	520.470460825569	5
1	698	523.24558735362	4
1	702	523.63899066927	5
1	704	524.165304345721	6
1	706	525.032727638168	7
1	708	530.844916020055	6
1	712	534.17978948238	7
1	714	544.441572883342	6
1	718	546.952992047815	7
1	720	548.17887999863	6
1	724	548.268129104445	7
1	726	549.684796274613	6
1	730	556.054604738911	5
1	734	556.275248883297	6
1	736	558.935542390394	5
1	740	559.200454622201	6
1	742	560.101978648702	7
1	744	564.846452359888	6
1	748	564.857875593114	7
1	750	568.773536104586	6
1	754	569.328808205243	7
1	756	577.840275317388	6
1	760	578.200946516665	7
1	762	578.32444640517	6
1	766	578.557676386627	7
1	768	580.696777830092	6
1	772	580.928839344152	7
1	774	583.183567684725	6
1	778	583.702380000797	5
1	782	584.394344283328	6
1	784	585.08452880129	7
1	786	587.662571840546	6
1	790	588.094377180006	5
1	794	588.104002954006	6
1	796	588.566541565872	7
1	798	598.827107888869	6
1	802	599.257789396028	7
1	804	601.375774305589	6
1	808	601.969260180455	7
1	810	609.736887286565	6
1	814	610.113051123532	7
1	816	610.588789292385	6
1	820	612.849494124862	5
1	824	616.801695835988	6
1	826	617.319928181173	5
1	830	618.060467220813	6
1	832	618.076224051892	7
1	834	619.546019449682	6
1	838	619.586486611456	7
1	840	635.168927623593	6
1	844	635.688322744681	7
1	846	636.335874431314	6
1	850	636.373817012237	7
1	852	637.467575000509	6
1	856	638.892026150251	5
1	860	639.045712631791	6
1	862	640.244111677731	5
1	866	641.771124897677	4
1	870	641.881560220324	5
1	872	641.929677995872	4
1	876	642.02795232282	5
1	878	644.565882948877	6
1	880	645.00803613975	5
1	884	647.383300273205	6
1	886	653.608128647235	5
1	890	654.490351676508	4
1	894	656.084225120218	5
1	896	656.27297934141	6
1	898	657.39004339705	5
1	902	658.99878123164	6
1	904	661.020062269283	5
1	908	661.972662503863	6
1	910	667.594135478628	5
1	914	667.97701970159	6
1	916	672.617161366198	7
1	918	674.915183505717	6
1	922	675.570720924658	5
1	926	675.716320170247	4
1	930	676.172834022517	5
1	932	677.423413535389	6
1	934	680.167054646986	5
1	938	681.834938439897	4
1	942	683.121012148966	5
1	944	683.680759685446	4
1	948	684.929252984503	3
1	952	685.102768008373	4
1	954	685.202124292073	3
1	958	685.299149378304	4
1	960	686.593381054511	5
1	962	688.615418120839	6
1	964	691.038880373476	7
1	966	694.090880350359	6
1	970	696.041881102438	7
1	972	705.520657605613	6
1	976	708.296313864725	5
1	980	708.753261071469	6
1	982	709.18265312945	7
1	984	709.437189812568	6
1	988	709.455771252622	7
1	990	711.126246008836	6
1	994	711.147121959341	5
1	998	711.306838760097	6
1	1000	711.65304890862	7
1	1002	713.325739597553	6
1	1006	715.987491364568	5
1	1010	718.47148369447	6
1	1012	720.314449112591	5
1	1016	720.601911944608	6
1	1018	720.819500164052	7
1	1020	721.500278811334	6
1	1024	721.699889567909	5
1	1028	722.394121810008	6
1	1030	723.022548556326	5
1	1034	723.763073305231	4
1	1038	724.378129781001	5
1	1040	725.175936724353	6
1	1042	727.295184816154	5
1	1046	729.699530629449	6
1	1048	731.390402837323	7
1	1050	739.002088666361	6
1	1054	739.753025319426	7
1	1056	745.239022068864	6
1	1060	751.200195568617	5
1	1064	751.408193465518	4
1	1068	751.462933900506	5
1	1070	752.022649886976	4
1	1074	752.695239703853	5
1	1076	753.326118455303	6
1	1078	756.423802089801	5
1	1082	757.013286785867	4
1	1086	757.825619963407	5
1	1088	758.396615751346	6
1	1090	760.27397575323	7
1	1092	763.52016978136	6
1	1096	763.917423668936	7
1	1098	767.757242494856	6
1	1102	770.431798188122	7
1	1104	773.145614014564	6
1	1108	773.24321787032	5
1	1112	774.369046334355	6
1	1114	775.213300110725	7
1	1116	780.010629685248	6
1	1120	781.62500873244	7
1	1122	783.169473770259	6
1	1126	785.015218966874	7
1	1128	790.153073586946	6
1	1132	790.499828998554	5
1	1136	790.654736650437	4
1	1140	790.822774998361	5
1	1142	790.834479959765	6
1	1144	794.337071608536	7
1	1146	794.978061974877	6
1	1150	801.020676879229	7
1	1152	804.708568112538	6
1	1156	804.874808666311	7
1	1158	807.759912087942	6
1	1162	812.014167094534	5
1	1166	812.924831541996	6
1	1168	813.225635367195	5
1	1172	815.652994799678	6
1	1174	818.11709752659	7
1	1176	819.862647165239	6
1	1180	820.276118092146	7
1	1182	831.114775255366	6
1	1186	832.491116710293	7
1	1188	836.807454048116	6
1	1192	837.613152091291	5
1	1196	839.568814564116	6
1	1198	840.24668250781	7
1	1200	840.466740800865	6
1	1204	840.712078740072	7
1	1206	859.962406176961	6
1	1210	861.764903342193	7
1	1212	864.516247769874	6
1	1216	870.930444456789	5
1	1220	872.481753407914	6
1	1222	875.242723199554	7
1	1224	875.791464524187	6
1	1228	876.266238476321	5
1	1232	877.497448871753	4
1	1236	880.399549453802	5
1	1238	882.280820336647	6
1	1240	882.594463265146	5
1	1244	883.819628299939	6
1	1246	884.400844319285	5
1	1250	886.344098377242	6
1	1252	886.628903748022	7
1	1254	894.979480518318	6
1	1258	897.326556604146	5
1	1262	900.567569557507	4
1	1266	900.575145104837	5
1	1268	900.948801653525	4
1	1272	901.998737707757	5
1	1274	902.212758087098	6
1	1276	902.61861566613	5
1	1280	903.082649981182	6
1	1282	903.923516386073	7
1	1284	907.450516954728	6
1	1288	907.656903934831	5
1	1292	908.637155152801	6
1	1294	908.908298064645	5
1	1298	909.997317009931	6
1	1300	910.596001709806	5
1	1304	911.264802796677	4
1	1308	911.282024982877	5
1	1310	915.585542454341	6
1	1312	916.099429653293	5
1	1316	919.179819105154	6
1	1318	923.884197908011	7
1	1320	925.101713029697	6
1	1324	925.459966481672	5
1	1328	927.727072207716	4
1	1332	927.729269282699	5
1	1334	927.755643539516	6
1	1336	928.499957335615	7
1	1338	928.875639984324	6
1	1342	931.293804786795	7
1	1344	931.638718055291	6
1	1348	932.149441185834	5
1	1352	933.842132036935	6
1	1354	935.052606486861	7
1	1356	939.860485256782	6
1	1360	941.421630125082	7
1	1362	944.807299819796	6
1	1366	949.973523697589	7
1	1368	952.617000628684	6
1	1372	954.407861467201	7
1	1374	960.539663794512	6
1	1378	964.307517669084	5
1	1382	964.74236275821	4
1	1386	967.104165103327	5
1	1388	968.440589021133	6
1	1390	969.713904741992	7
1	1392	971.698067632599	6
1	1396	975.669080835357	5
1	1400	975.958817721384	6
1	1402	978.099522482608	7
1	1404	978.730403129808	6
1	1408	980.264992457874	5
1	1412	981.608464028113	6
1	1414	982.627288459677	5
1	1418	982.774690653571	4
1	1422	983.147172596515	3
1	1426	984.932387994091	4
1	1428	985.256560538151	5
1	1430	988.85973990668	6
1	1432	989.388744906159	7
2	161	122.033484382358	1
2	163	122.033484382358	2
2	167	126.900047175871	1
2	169	126.900047175871	2
2	171	126.945050862746	1
2	173	126.945050862746	2
2	179	130.073392826187	1
2	181	130.073392826187	2
2	185	130.99096927664	1
2	187	130.99096927664	2
2	191	138.865972185218	1
2	193	138.865972185218	2
2	197	147.251442858241	1
2	199	147.251442858241	2
2	203	156.116342895432	1
2	205	156.116342895432	2
2	207	157.331694152492	1
2	209	157.331694152492	2
2	215	168.779468851686	1
2	217	168.779468851686	2
2	219	172.590604060514	1
2	221	172.590604060514	2
2	225	179.535691841686	1
2	227	179.535691841686	2
2	233	196.248302923712	1
2	235	196.248302923712	2
2	239	204.598500901938	1
2	241	204.598500901938	2
2	245	209.331133849984	1
2	247	209.331133849984	2
2	251	211.457884654379	1
2	253	211.457884654379	2
2	255	215.347121337431	1
2	257	215.347121337431	2
2	261	222.849620297027	1
2	263	222.849620297027	2
2	265	223.436372466319	1
2	267	223.436372466319	2
2	273	225.911310820158	1
2	275	225.911310820158	2
2	277	226.047239232937	1
2	279	226.047239232937	2
2	287	235.794050405106	1
2	289	235.794050405106	2
2	291	236.143409772857	1
2	293	236.143409772857	2
2	297	240.021577390436	1
2	299	240.021577390436	2
2	305	246.609765390741	1
2	307	246.609765390741	2
2	311	252.274223140725	1
2	313	252.274223140725	2
2	317	255.150300621699	1
2	319	255.150300621699	2
2	323	255.820145690289	1
2	325	255.820145690289	2
2	327	256.478318489214	1
2	329	256.478318489214	2
2	333	256.58948335895	1
2	335	256.58948335895	2
2	339	257.564191398046	1
2	341	257.564191398046	2
2	345	260.74407580549	1
2	347	260.74407580549	2
2	353	263.581162116549	1
2	355	263.581162116549	2
2	357	264.650978753847	1
2	359	264.650978753847	2
2	363	265.983346130443	1
2	365	265.983346130443	2
2	367	266.935307119513	1
2	369	266.935307119513	2
2	371	268.349710410093	1
2	373	268.349710410093	2
2	381	271.902234495776	1
2	383	271.902234495776	2
2	389	274.918333324014	1
2	391	274.918333324014	2
2	395	277.247303678129	1
2	397	277.247303678129	2
2	399	281.999357030683	1
2	401	281.999357030683	2
2	407	295.294373278124	1
2	409	295.294373278124	2
2	411	296.341754068634	1
2	413	296.341754068634	2
2	415	298.363772041924	1
2	417	298.363772041924	2
2	423	302.609456101763	1
2	425	302.609456101763	2
2	431	312.766709286096	1
2	433	312.766709286096	2
2	435	317.226569345975	1
2	437	317.226569345975	2
2	443	328.174745952856	1
2	445	328.174745952856	2
2	449	354.205996991603	1
2	451	354.205996991603	2
2	453	355.203999795076	1
2	455	355.203999795076	2
2	457	356.072024388528	1
2	459	356.072024388528	2
2	463	358.553135747193	1
2	465	358.553135747193	2
2	467	359.871968591837	1
2	469	359.871968591837	2
2	471	359.945245994253	1
2	473	359.945245994253	2
2	485	372.429626400048	1
2	487	372.429626400048	2
2	489	376.185127601178	1
2	491	376.185127601178	2
2	497	385.06024280741	1
2	499	385.06024280741	2
2	503	387.222607458111	1
2	505	387.222607458111	2
2	509	402.379197422805	1
2	511	402.379197422805	2
2	515	404.33854480255	1
2	517	404.33854480255	2
2	521	411.947033812396	1
2	523	411.947033812396	2
2	525	414.398566349142	1
2	527	414.398566349142	2
2	529	415.516033918042	1
2	531	415.516033918042	2
2	535	419.134081972009	1
2	537	419.134081972009	2
2	543	424.34865417555	1
2	545	424.34865417555	2
2	551	429.620452998476	1
2	553	429.620452998476	2
2	557	435.803612361549	1
2	559	435.803612361549	2
2	561	440.082876603723	1
2	563	440.082876603723	2
2	567	441.303627276803	1
2	569	441.303627276803	2
2	571	444.014120929495	1
2	573	444.014120929495	2
2	581	447.4415638561	1
2	583	447.4415638561	2
2	587	456.660717103196	1
2	589	456.660717103196	2
2	591	458.358127104751	1
2	593	458.358127104751	2
2	599	466.286210870102	1
2	601	466.286210870102	2
2	603	469.481165896991	1
2	605	469.481165896991	2
2	607	471.005929457251	1
2	609	471.005929457251	2
2	613	471.602139407792	1
2	615	471.602139407792	2
2	617	471.700659809979	1
2	619	471.700659809979	2
2	623	474.38822825483	1
2	625	474.38822825483	2
2	633	478.416271579476	1
2	635	478.416271579476	2
2	639	480.223750933242	1
2	641	480.223750933242	2
2	647	485.644585839178	1
2	649	485.644585839178	2
2	651	490.070152085845	1
2	653	490.070152085845	2
2	659	500.566038233476	1
2	661	500.566038233476	2
2	663	502.343427178221	1
2	665	502.343427178221	2
2	667	502.873287229115	1
2	669	502.873287229115	2
2	671	505.775612220827	1
2	673	505.775612220827	2
2	681	515.186956845067	1
2	683	515.186956845067	2
2	685	518.076494112936	1
2	687	518.076494112936	2
2	693	520.470460825569	1
2	695	520.470460825569	2
2	697	523.24558735362	1
2	699	523.24558735362	2
2	707	530.844916020055	1
2	709	530.844916020055	2
2	713	544.441572883342	1
2	715	544.441572883342	2
2	719	548.17887999863	1
2	721	548.17887999863	2
2	725	549.684796274613	1
2	727	549.684796274613	2
2	729	556.054604738911	1
2	731	556.054604738911	2
2	735	558.935542390394	1
2	737	558.935542390394	2
2	743	564.846452359888	1
2	745	564.846452359888	2
2	749	568.773536104586	1
2	751	568.773536104586	2
2	755	577.840275317388	1
2	757	577.840275317388	2
2	761	578.32444640517	1
2	763	578.32444640517	2
2	767	580.696777830092	1
2	769	580.696777830092	2
2	773	583.183567684725	1
2	775	583.183567684725	2
2	777	583.702380000797	1
2	779	583.702380000797	2
2	785	587.662571840546	1
2	787	587.662571840546	2
2	789	588.094377180006	1
2	791	588.094377180006	2
2	797	598.827107888869	1
2	799	598.827107888869	2
2	803	601.375774305589	1
2	805	601.375774305589	2
2	809	609.736887286565	1
2	811	609.736887286565	2
2	815	610.588789292385	1
2	817	610.588789292385	2
2	819	612.849494124862	1
2	821	612.849494124862	2
2	825	617.319928181173	1
2	827	617.319928181173	2
2	833	619.546019449682	1
2	835	619.546019449682	2
2	839	635.168927623593	1
2	841	635.168927623593	2
2	845	636.335874431314	1
2	847	636.335874431314	2
2	851	637.467575000509	1
2	853	637.467575000509	2
2	855	638.892026150251	1
2	857	638.892026150251	2
2	861	640.244111677731	1
2	863	640.244111677731	2
2	865	641.771124897677	1
2	867	641.771124897677	2
2	871	641.929677995872	1
2	873	641.929677995872	2
2	879	645.00803613975	1
2	881	645.00803613975	2
2	885	653.608128647235	1
2	887	653.608128647235	2
2	889	654.490351676508	1
2	891	654.490351676508	2
2	897	657.39004339705	1
2	899	657.39004339705	2
2	903	661.020062269283	1
2	905	661.020062269283	2
2	909	667.594135478628	1
2	911	667.594135478628	2
2	917	674.915183505717	1
2	919	674.915183505717	2
2	921	675.570720924658	1
2	923	675.570720924658	2
2	925	675.716320170247	1
2	927	675.716320170247	2
2	933	680.167054646986	1
2	935	680.167054646986	2
2	937	681.834938439897	1
2	939	681.834938439897	2
2	943	683.680759685446	1
2	945	683.680759685446	2
2	947	684.929252984503	1
2	949	684.929252984503	2
2	953	685.202124292073	1
2	955	685.202124292073	2
2	965	694.090880350359	1
2	967	694.090880350359	2
2	971	705.520657605613	1
2	973	705.520657605613	2