version 3
run General-14-20221103-10:28:22-6760
attr configname General
attr datetime 20221103-10:28:22
attr datetimef 20221103-102822
attr experiment General
attr inifile block.ini
attr iterationvars "$0=2, $1=30"
attr iterationvarsd 2/30
attr iterationvarsf 2,30-
attr measurement "$0=2, $1=30"
attr network Block
attr processid 6760
attr repetition 4
attr replication #4
attr resultdir results
attr runnumber 14
attr seedset 14
config network Block
config repeat 5
config sim-time-limit 1000s
config warmup-period 100s
config **.alloca.resourceModuleName "\"risorse\""
config **.dealloca.resourceModuleName "\"risorse\""
config **.is.delay exponential(3s)
config **.servente.serviceTime exponential(2s)
config **.dealloca.resourceAmount 2
config **.alloca.resourceAmount 2
config **.risorse.amount 6
config **.sorgente.numJobs (30)
config **.result-recording-modes all

vector 0 Block.is delayedJobs:vector ETV
attr interpolationmode sample-hold
attr recordingmode vector
attr title "number of delayed jobs"
vector 1 Block.alloca queueLength:vector ETV
attr interpolationmode sample-hold
attr recordingmode vector
attr title "queue length"
vector 2 Block.servente queueLength:vector ETV
attr interpolationmode sample-hold
attr recordingmode vector
attr title "queue length"
vector 3 Block.servente queueingTime:vector ETV
attr interpolationmode none
attr recordingmode vector
attr title "queueing time at dequeue"
attr unit s
vector 4 Block.alloca queueingTime:vector ETV
attr interpolationmode none
attr recordingmode vector
attr title "queueing time at dequeue"
attr unit s
vector 5 Block.risorse amount:vector ETV
attr interpolationmode sample-hold
attr recordingmode vector
attr title "available resource"
0	343	101.450414756878	1
0	348	104.128438500387	2
0	352	104.357796550414	3
0	353	105.955528442783	2
0	358	106.980285768828	3
0	359	108.336107458497	2
0	361	109.890496147807	1
0	366	109.896434540149	2
0	370	110.705025603145	3
0	371	111.193191746881	2
0	373	111.411308513249	1
0	375	112.80764766767	0
0	380	113.514900275331	1
0	381	115.83325473921	0
0	386	116.45048774491	1
0	387	116.835171881691	0
0	392	118.294804030018	1
0	393	118.793058172452	0
0	398	120.103544279166	1
0	399	121.898029413926	0
0	404	124.549720898249	1
0	408	124.738116801494	2
0	409	126.231199228597	1
0	414	126.519906799474	2
0	415	126.749162191702	1
0	420	128.402406968644	2
0	421	128.707084963893	1
0	426	129.1006533235	2
0	427	129.382864370897	1
0	429	129.642679651608	0
0	434	131.314205213045	1
0	435	133.442572390829	0
0	440	135.502209653156	1
0	444	137.180543143418	2
0	445	138.099367203127	1
0	450	139.228697000885	2
0	454	139.698829614866	3
0	455	139.951190550193	2
0	457	140.233918657877	1
0	459	141.320507825172	0
0	464	142.638619650697	1
0	468	143.174139334117	2
0	469	143.434309196429	1
0	471	144.52527548081	0
0	476	145.707393568502	1
0	480	146.685800211211	2
0	484	146.806555115437	3
0	485	146.915706054598	2
0	490	146.949467446626	3
0	491	147.464124348901	2
0	493	148.241208432724	1
0	498	150.283018569471	2
0	499	150.515800525214	1
0	504	151.03144352565	2
0	508	152.051718072952	3
0	512	152.698320057422	4
0	513	152.989871613805	3
0	518	153.628212764961	4
0	519	154.146980798714	3
0	521	154.964784259592	2
0	523	155.854905837893	1
0	525	156.966610608193	0
0	530	157.209698244715	1
0	531	158.918337368472	0
0	536	162.504850892716	1
0	540	163.071083370934	2
0	544	163.100493702466	3
0	545	164.887179088567	2
0	550	169.072325646443	3
0	551	171.271508853235	2
0	553	172.329278271493	1
0	558	173.857159001092	2
0	562	174.015609141652	3
0	563	175.16863137169	2
0	568	175.543065394881	3
0	569	175.750552037897	2
0	574	177.692960468592	3
0	575	179.025777310383	2
0	577	180.024916238274	1
0	579	180.665119449843	0
0	584	185.163925078966	1
0	585	185.473317154225	0
0	590	186.435691886578	1
0	591	189.598783924011	0
0	596	189.662536876265	1
0	600	191.394874785397	2
0	601	192.206177674161	1
0	606	197.208398825776	2
0	607	198.704713288529	1
0	612	199.391644762885	2
0	616	199.508358634415	3
0	617	199.650493115938	2
0	619	200.046908834695	1
0	624	200.215626849027	2
0	628	201.017738959199	3
0	629	201.240970250278	2
0	634	201.364882651988	3
0	638	201.400237838491	4
0	639	201.555112078471	3
0	641	201.899160348687	2
0	643	202.377277408332	1
0	648	204.706861468537	2
0	649	204.712525416303	1
0	651	204.72812420539	0
0	656	205.449668161068	1
0	660	208.418629796074	2
0	664	208.731490999251	3
0	668	209.192848402287	4
0	669	209.593655517736	3
0	674	209.869579936102	4
0	675	210.272079828863	3
0	680	211.65108987257	4
0	681	211.797685735387	3
0	683	214.187274674146	2
0	685	215.695953031752	1
0	690	215.986102907719	2
0	694	216.19843094642	3
0	695	216.530522242427	2
0	697	217.132788937495	1
0	699	219.141036160079	0
0	704	219.358858056359	1
0	705	220.838165279499	0
0	710	221.56911416583	1
0	714	225.855047850541	2
0	718	226.002879495793	3
0	719	226.240808371993	2
0	724	226.28910690379	3
0	728	226.417935429012	4
0	729	226.98217394496	3
0	731	228.638365860505	2
0	736	229.26343566573	3
0	737	229.792419890173	2
0	742	230.471485297069	3
0	743	230.860120270917	2
0	748	230.862467968442	3
0	749	231.157880064942	2
0	751	232.140687105444	1
0	756	232.535732264717	2
0	757	232.994244909996	1
0	759	234.129832333759	0
0	764	237.152758088182	1
0	768	240.030702152226	2
0	769	240.459141923224	1
0	771	241.375735080603	0
0	776	242.360155611495	1
0	780	242.379233070885	2
0	784	243.448068539329	3
0	785	243.812412446004	2
0	790	244.754482664042	3
0	791	245.172798903266	2
0	796	245.280276473752	3
0	797	245.39189030472	2
0	799	246.233452642886	1
0	804	246.713753325876	2
0	808	247.859579604414	3
0	809	248.149521453265	2
0	811	249.788970209075	1
0	816	249.810078665025	2
0	820	249.92425583968	3
0	821	250.30621224741	2
0	826	250.531848708751	3
0	830	252.280643275324	4
0	831	252.334126733355	3
0	833	253.439888664298	2
0	838	253.928984313904	3
0	839	255.461078880097	2
0	841	255.607818008429	1
0	843	257.952597928875	0
0	848	259.341261712638	1
0	852	264.280241304884	2
0	853	264.93355433092	1
0	858	268.242394476179	2
0	859	268.857735947154	1
0	861	270.423060472683	0
0	866	272.530157733388	1
0	870	273.38627515438	2
0	874	274.040845086477	3
0	875	274.070616260505	2
0	877	274.366859627734	1
0	882	274.830115274156	2
0	883	275.079192072458	1
0	888	276.639284777209	2
0	889	276.820546339509	1
0	891	278.689754130883	0
0	896	279.721585876122	1
0	900	280.199448375086	2
0	901	281.64935865645	1
0	906	283.452742217894	2
0	910	283.495511845131	3
0	914	284.09524537648	4
0	915	284.192656791876	3
0	917	284.229720115997	2
0	919	284.494852921918	1
0	921	284.785676675986	0
0	926	285.032641801935	1
0	930	285.300713450636	2
0	931	287.11021445781	1
0	936	288.26664925566	2
0	940	288.353108104286	3
0	944	289.511497116805	4
0	948	290.867217190229	5
0	949	291.255815668176	4
0	951	292.449922141271	3
0	956	293.518321775466	4
0	957	295.146276632641	3
0	962	296.588832375878	4
0	963	296.763270229486	3
0	965	297.093197219572	2
0	970	297.821050973296	3
0	971	297.826235933875	2
0	976	298.339215352298	3
0	977	300.269289652573	2
0	979	302.718203120336	1
0	984	302.773302597286	2
0	988	302.971070830886	3
0	989	303.855775082102	2
0	991	304.742286047809	1
0	993	304.816624123811	0
0	998	305.064961489999	1
0	1002	305.803855681896	2
0	1003	305.999933283403	1
0	1005	307.87057304537	0
0	1010	308.136809350712	1
0	1014	308.665324044362	2
0	1015	308.953136685196	1
0	1020	310.229688170662	2
0	1021	310.679017106013	1
0	1026	311.56887808647	2
0	1027	312.434935959238	1
0	1029	314.300194791309	0
0	1034	315.699951442312	1
0	1038	315.983740168822	2
0	1042	316.248132971105	3
0	1046	317.154792743089	4
0	1047	318.217769247388	3
0	1052	318.660519869513	4
0	1053	319.307052254979	3
0	1055	319.486772825066	2
0	1057	319.586552456238	1
0	1059	320.14363136736	0
0	1064	320.22573613234	1
0	1068	320.337449156771	2
0	1069	321.343184487754	1
0	1071	322.093402424201	0
0	1076	322.260469327606	1
0	1080	322.55511944757	2
0	1081	323.679358194954	1
0	1086	323.684234152133	2
0	1087	325.068378756106	1
0	1089	325.281787643141	0
0	1094	333.921474662671	1
0	1098	334.649858516553	2
0	1102	335.338933143681	3
0	1103	337.266786024913	2
0	1105	337.373926142487	1
0	1110	338.750309417026	2
0	1114	339.861115610217	3
0	1118	340.536045769524	4
0	1119	340.627317032881	3
0	1121	342.353223609026	2
0	1126	342.493118707213	3
0	1130	342.848938830557	4
0	1131	343.120062973429	3
0	1133	344.201650180495	2
0	1138	344.39822727702	3
0	1139	346.940874197145	2
0	1141	347.137266162271	1
0	1146	348.36333917207	2
0	1150	350.902823943453	3
0	1151	351.858135727041	2
0	1156	352.074180106753	3
0	1157	352.495788713028	2
0	1159	352.809669087386	1
0	1161	354.961034009612	0
0	1166	357.851959140106	1
0	1167	358.328477703967	0
0	1172	361.581950018263	1
0	1173	362.463875014215	0
0	1178	369.305641955987	1
0	1179	370.817768000387	0
0	1184	371.195404698727	1
0	1185	371.408101630493	0
0	1190	372.285244511132	1
0	1194	373.17923466515	2
0	1195	373.392847124423	1
0	1200	374.045932229042	2
0	1201	374.159958683678	1
0	1203	377.114062945019	0
0	1208	381.663649990887	1
0	1212	382.179187028045	2
0	1213	382.330435367638	1
0	1215	382.933354108271	0
0	1220	383.971650033339	1
0	1224	384.310105739929	2
0	1225	384.353953101696	1
0	1227	384.893900423154	0
0	1232	385.764961275125	1
0	1236	386.974550362966	2
0	1237	387.224548437935	1
0	1242	388.133982216713	2
0	1243	388.444566411971	1
0	1245	390.418417787746	0
0	1250	391.988826116205	1
0	1254	392.863046873897	2
0	1255	393.152150503798	1
0	1260	394.330692546388	2
0	1261	395.54520286519	1
0	1263	400.687694387574	0
0	1268	401.093659412331	1
0	1269	402.87647638755	0
0	1274	402.979765470343	1
0	1278	404.994526879541	2
0	1279	405.472240024638	1
0	1284	406.602696782482	2
0	1285	406.637607665352	1
0	1290	408.054223224099	2
0	1291	409.285188830758	1
0	1293	411.477351689037	0
0	1298	411.721332536255	1
0	1302	411.943322088924	2
0	1306	411.958952764027	3
0	1307	412.309625822255	2
0	1309	412.905092816447	1
0	1314	414.296036538027	2
0	1318	414.337218641205	3
0	1319	414.61361612764	2
0	1321	414.639022940303	1
0	1323	417.066189568844	0
0	1328	420.788816724553	1
0	1332	421.930478380716	2
0	1336	422.275591770064	3
0	1337	422.587032578328	2
0	1339	424.370997970628	1
0	1344	424.773062572744	2
0	1345	425.815261090804	1
0	1347	430.295913897172	0
0	1352	430.483892569016	1
0	1353	430.902314826197	0
0	1358	432.561626402962	1
0	1359	434.082496667612	0
0	1364	435.865145936326	1
0	1365	438.383544137456	0
0	1370	439.266798216927	1
0	1374	439.525628748969	2
0	1378	439.661671470141	3
0	1382	439.898415713733	4
0	1383	441.203754300524	3
0	1385	441.417528622197	2
0	1390	441.560325324975	3
0	1391	443.461486079014	2
0	1393	444.158506136677	1
0	1395	444.579661272046	0
0	1400	449.359203825383	1
0	1404	449.597211300357	2
0	1408	449.790948648834	3
0	1412	450.112224897448	4
0	1413	450.39799911135	3
0	1415	450.942869845252	2
0	1417	451.165917603133	1
0	1422	451.209254297661	2
0	1423	451.480703030975	1
0	1428	451.844210120033	2
0	1432	451.92260722586	3
0	1433	452.38396524848	2
0	1435	454.843932698352	1
0	1440	455.745541455833	2
0	1444	456.215555230283	3
0	1445	456.857532234338	2
0	1450	457.352532891846	3
0	1451	457.428969312488	2
0	1453	457.886112407999	1
0	1458	458.493806923325	2
0	1462	460.315616250763	3
0	1463	460.647733940465	2
0	1465	460.844138947361	1
0	1467	462.078790128009	0
0	1472	464.022360914705	1
0	1476	464.093350735726	2
0	1480	464.341104222888	3
0	1484	464.489107947879	4
0	1485	464.942573941099	3
0	1490	465.445538834851	4
0	1491	466.171794133252	3
0	1496	466.380219743198	4
0	1500	466.699481680029	5
0	1501	467.364868588154	4
0	1503	468.618270836649	3
0	1505	469.897706544736	2
0	1510	472.239279038767	3
0	1511	474.484266172041	2
0	1516	474.849276632255	3
0	1517	475.455383616025	2
0	1519	475.568791755802	1
0	1521	475.630047218519	0
0	1526	477.655357417839	1
0	1530	477.969610716229	2
0	1531	480.806874345464	1
0	1533	482.994699276883	0
0	1538	484.500229740055	1
0	1542	488.102088965522	2
0	1546	489.355510058916	3
0	1547	489.976555195571	2
0	1549	490.009721552191	1
0	1554	490.55897394195	2
0	1558	491.985220939056	3
0	1562	492.502993590962	4
0	1563	492.675725823335	3
0	1565	494.034957914303	2
0	1567	494.353561591306	1
0	1572	494.439125704573	2
0	1576	496.4820562285	3
0	1577	498.17805718742	2
0	1582	498.411259272283	3
0	1583	504.035836925154	2
0	1588	505.438514066363	3
0	1592	506.638002420694	4
0	1593	507.093407639621	3
0	1595	507.523060808775	2
0	1600	508.918751601116	3
0	1601	509.665539346908	2
0	1606	509.894378808383	3
0	1607	511.780736157312	2
0	1612	511.922662754278	3
0	1613	511.931771305156	2
0	1615	513.883025171704	1
0	1620	513.977112712721	2
0	1621	515.090922541597	1
0	1623	515.200956228709	0
0	1628	515.358264561092	1
0	1629	517.207223951962	0
0	1634	518.757013506345	1
0	1638	519.04693153449	2
0	1639	519.265670024382	1
0	1641	520.840229595106	0
0	1646	529.706182078964	1
0	1650	529.96701509606	2
0	1651	530.977538747253	1
0	1653	530.986736020789	0
0	1658	533.412010811085	1
0	1659	534.788156628469	0
0	1664	537.95433632603	1
0	1668	539.817904622359	2
0	1672	539.8493241124	3
0	1673	540.553488706973	2
0	1678	541.3331175614	3
0	1679	542.085823654266	2
0	1681	542.293793382346	1
0	1686	543.092405618695	2
0	1687	543.3028344601	1
0	1692	543.549618056302	2
0	1693	544.012817593661	1
0	1698	546.55859084965	2
0	1702	546.603891805248	3
0	1706	547.557306883539	4
0	1707	547.982405540107	3
0	1712	548.065912822585	4
0	1713	548.526685288817	3
0	1715	550.018741530257	2
0	1720	550.488549142413	3
0	1721	550.857902953357	2
0	1723	552.134789192878	1
0	1728	555.01675759906	2
0	1732	555.304353348843	3
0	1733	556.229236907798	2
0	1738	558.540819070325	3
0	1739	559.058234328241	2
0	1744	559.130943660994	3
0	1745	559.320584570987	2
0	1750	560.38435203461	3
0	1754	560.47878758977	4
0	1755	560.627099868952	3
0	1760	563.497897394149	4
0	1764	564.071124863362	5
0	1765	564.108448383485	4
0	1767	564.427034004094	3
0	1769	564.43669386048	2
0	1771	568.395509499499	1
0	1776	569.233761452487	2
0	1777	569.468228606852	1
0	1782	569.77463345882	2
0	1783	572.653754606305	1
0	1785	575.171922410759	0
0	1790	579.699702822338	1
0	1791	580.844476776433	0
0	1796	581.919480282684	1
0	1800	582.023193043837	2
0	1804	582.370101560295	3
0	1805	582.618833361751	2
0	1810	583.760127100237	3
0	1814	584.058855297683	4
0	1815	584.167246778142	3
0	1817	586.323518780388	2
0	1822	586.702596162954	3
0	1826	587.571961367872	4
0	1830	587.884115926466	5
0	1831	587.920602201245	4
0	1833	589.503671477493	3
0	1835	589.675480138889	2
0	1840	590.29179436552	3
0	1841	591.827173428945	2
0	1843	592.62311556953	1
0	1845	594.708010332139	0
0	1850	596.126849530048	1
0	1854	597.353734239856	2
0	1855	598.91021881931	1
0	1860	598.953016570027	2
0	1861	600.840695374412	1
0	1866	601.75445478659	2
0	1870	602.285546276201	3
0	1871	602.588532820007	2
0	1876	602.81756493763	3
0	1877	603.337503983994	2
0	1879	604.795981013106	1
0	1881	605.408541295096	0
0	1886	607.790119473636	1
0	1890	609.307041181613	2
0	1891	609.772295289261	1
0	1893	612.208307285668	0
0	1898	613.605418117035	1
0	1899	614.226271762763	0
0	1904	615.975286579844	1
0	1905	619.484408939596	0
0	1910	623.753826985395	1
0	1914	625.063272904632	2
0	1918	625.099610857	3
0	1922	625.566344912482	4
0	1923	625.594648177541	3
0	1928	626.299849764426	4
0	1929	627.346621360701	3
0	1934	627.808657680318	4
0	1938	628.744370813598	5
0	1939	630.770417499883	4
0	1944	630.781063069491	5
0	1945	630.940168824304	4
0	1950	631.072008312831	5
0	1951	632.447010578576	4
0	1956	635.010335981787	5
0	1957	636.070198286546	4
0	1959	636.185762742256	3
0	1961	636.463208562501	2
0	1966	637.508899862495	3
0	1970	638.881887127023	4
0	1971	638.900851968429	3
0	1973	639.942052676448	2
0	1975	640.597689310906	1
0	1980	641.336940655312	2
0	1981	642.197421625624	1
0	1983	642.645854972576	0
0	1988	643.283030445994	1
0	1992	644.639387779723	2
0	1993	645.37938166516	1
0	1995	646.574869007756	0
0	2000	652.177686737862	1
0	2004	654.052089723066	2
0	2005	655.467638620872	1
0	2010	658.638710711257	2
0	2014	659.313971803548	3
0	2015	660.899181823759	2
0	2020	665.077671724336	3
0	2024	667.088864637374	4
0	2028	667.691704620774	5
0	2029	668.395343379669	4
0	2034	668.409564894414	5
0	2035	669.427929983383	4
0	2037	670.07785930426	3
0	2042	670.161441239305	4
0	2043	670.434551715577	3
0	2048	670.772182028068	4
0	2049	671.502579026949	3
0	2054	671.516168376187	4
0	2055	671.518002863459	3
0	2057	671.640872293058	2
0	2062	671.879226387913	3
0	2066	672.347716301193	4
0	2067	672.758284185919	3
0	2069	675.644611466384	2
0	2074	679.384756908545	3
0	2075	679.632423701378	2
0	2077	679.765849399844	1
0	2082	680.428055747325	2
0	2083	681.01107535531	1
0	2085	681.549889757636	0
0	2090	682.072235737918	1
0	2094	686.121031317903	2
0	2095	686.135107990515	1
0	2100	688.036030702335	2
0	2101	689.056480682097	1
0	2106	690.192589615624	2
0	2107	691.78764576744	1
0	2112	692.836948024786	2
0	2113	694.868982840748	1
0	2115	695.768574247015	0
0	2120	701.556144839065	1
0	2124	702.105000325621	2
0	2125	703.556871430281	1
0	2127	705.183377424995	0
0	2132	706.190631183946	1
0	2136	707.636630111917	2
0	2140	709.884984189533	3
0	2144	710.652485059437	4
0	2145	710.909746676542	3
0	2150	712.336298061573	4
0	2151	712.517685752778	3
0	2153	713.149440268377	2
0	2158	714.613509859539	3
0	2159	716.702024419163	2
0	2164	717.091758876801	3
0	2165	719.067219405613	2
0	2167	720.790110881467	1
0	2169	721.256869360122	0
0	2174	721.649797371092	1
0	2175	724.020772299274	0
0	2180	729.784319574348	1
0	2184	729.828315746764	2
0	2185	730.055673058699	1
0	2190	730.314115201	2
0	2191	731.823684598853	1
0	2196	732.672092750091	2
0	2200	732.815348296427	3
0	2201	733.546017601519	2
0	2203	734.177502373383	1
0	2205	736.89513195957	0
0	2210	738.579272471193	1
0	2214	739.536152225152	2
0	2218	741.032441152057	3
0	2219	742.671353082323	2
0	2221	742.79540020556	1
0	2226	743.620195787551	2
0	2230	743.876785731634	3
0	2231	744.893956554884	2
0	2236	746.889643994849	3
0	2237	747.307082698617	2
0	2239	747.489364202984	1
0	2244	748.401904532177	2
0	2248	748.544942532836	3
0	2252	749.956835486487	4
0	2253	750.030971449942	3
0	2258	751.082661500141	4
0	2259	751.112414051856	3
0	2261	752.868697082144	2
0	2263	753.329893613452	1
0	2268	754.861369592039	2
0	2269	756.757609196946	1
0	2274	760.190101786098	2
0	2275	760.95804574588	1
0	2280	764.702665711802	2
0	2284	765.114966760423	3
0	2285	765.284336496609	2
0	2287	765.533215253995	1
0	2292	767.372179490543	2
0	2296	770.440725040558	3
0	2297	771.107684793411	2
0	2302	772.053421384186	3
0	2303	773.764379329985	2
0	2308	775.06392556264	3
0	2312	775.355469257644	4
0	2316	776.321451015856	5
0	2320	776.609427679315	6
0	2321	776.749613925814	5
0	2326	777.055584342713	6
0	2327	779.202971006446	5
0	2329	779.967717130572	4
0	2331	780.734938197812	3
0	2333	780.791139873807	2
0	2335	780.969226232699	1
0	2340	783.396840388357	2
0	2341	783.454452227144	1
0	2346	783.791246970946	2
0	2347	785.143713362528	1
0	2352	785.586466547563	2
0	2353	786.298502425946	1
0	2358	789.241590017708	2
0	2362	791.131315987116	3
0	2366	791.25968184197	4
0	2367	791.285637198661	3
0	2369	791.661237315503	2
0	2374	792.216038988603	3
0	2378	792.445679279944	4
0	2379	792.645460419217	3
0	2381	792.967265425415	2
0	2386	794.252651490149	3
0	2387	795.033354152986	2
0	2392	798.242147370023	3
0	2393	799.256852928774	2
0	2398	800.184229337613	3
0	2402	800.232362638638	4
0	2403	800.529988828347	3
0	2405	801.655053232241	2
0	2407	803.272372064588	1
0	2412	803.387040336261	2
0	2416	803.906479271203	3
0	2420	804.077079226534	4
0	2421	804.14577931927	3
0	2426	805.555654503341	4
0	2427	805.596482085455	3
0	2429	806.286695852214	2
0	2431	807.307692446419	1
0	2436	807.665722674137	2
0	2437	809.514430355879	1
0	2442	811.062680610579	2
0	2443	811.07123125682	1
0	2448	812.495961845725	2
0	2452	812.511501121504	3
0	2456	813.51345913052	4
0	2457	813.92209742271	3
0	2459	815.470510388685	2
0	2464	816.396775471427	3
0	2468	816.492960671494	4
0	2469	817.150481590525	3
0	2471	817.179450607847	2
0	2473	817.605652536993	1
0	2478	823.782362743728	2
0	2482	825.367008499099	3
0	2486	825.805936531225	4
0	2487	825.886234086716	3
0	2489	827.323327939053	2
0	2491	829.313176149871	1
0	2496	830.603488410393	2
0	2497	830.780260814133	1
0	2502	831.099416871046	2
0	2503	831.583837863545	1
0	2508	835.544496160073	2
0	2512	835.92562732209	3
0	2513	836.534230228461	2
0	2515	836.988268705012	1
0	2520	839.649474433766	2
0	2524	840.04366841149	3
0	2525	840.07246963383	2
0	2527	840.876821946135	1
0	2532	841.05337378182	2
0	2533	842.532064451443	1
0	2538	842.908390688509	2
0	2539	842.950240377141	1
0	2541	844.717815595187	0
0	2546	845.309855070785	1
0	2547	845.36407565264	0
0	2552	846.320374265396	1
0	2556	848.21429194335	2
0	2560	849.067944248009	3
0	2561	849.179404572159	2
0	2563	851.267060502861	1
0	2565	852.80628019485	0
0	2570	860.108963387162	1
0	2574	861.262585710192	2
0	2575	863.351036742193	1
0	2577	864.018497198832	0
0	2582	864.64802121481	1
0	2583	865.123652447096	0
0	2588	867.532135717918	1
0	2592	867.592427513434	2
0	2593	869.278702914872	1
0	2595	870.859749164109	0
0	2600	882.365878992628	1
0	2604	885.92471902717	2
0	2605	886.054576371007	1
0	2607	886.560500149934	0
0	2612	888.376890112169	1
0	2616	890.405620417377	2
0	2620	891.305577925355	3
0	2621	891.65960094667	2
0	2626	894.638379635722	3
0	2630	895.740063871219	4
0	2631	895.93960271408	3
0	2636	896.096743363375	4
0	2637	896.697715730221	3
0	2639	896.710439755744	2
0	2641	897.739028984286	1
0	2643	897.973541070273	0
0	2648	899.206435093071	1
0	2652	899.735343136539	2
0	2653	900.033527520592	1
0	2658	900.473644510972	2
0	2662	900.802415562557	3
0	2663	902.098840557446	2
0	2668	903.139505636377	3
0	2672	903.199766515669	4
0	2676	903.766700021355	5
0	2677	903.791064993722	4
0	2679	903.947152974888	3
0	2681	904.035284579485	2
0	2683	904.272455362033	1
0	2688	905.262112813808	2
0	2689	905.352345917917	1
0	2694	906.606567854649	2
0	2695	907.774314210916	1
0	2697	911.27064185293	0
0	2702	913.071835709482	1
0	2706	913.072484480404	2
0	2707	913.111356509594	1
0	2709	913.980276456486	0
0	2714	919.887166257921	1
0	2718	921.336031263792	2
0	2719	921.402794693073	1
0	2721	922.269685862887	0
0	2726	924.067325436958	1
0	2727	925.499864399264	0
0	2732	926.39368393362	1
0	2733	928.053954453533	0
0	2738	935.973502639978	1
0	2742	936.726024682232	2
0	2746	936.911714523213	3
0	2747	937.594770281165	2
0	2749	938.292228090734	1
0	2751	940.091524194403	0
0	2756	942.356035867925	1
0	2757	942.967813116255	0
0	2762	944.252124666681	1
0	2766	944.504104390895	2
0	2770	945.355123406912	3
0	2771	946.366697397781	2
0	2773	946.866056103919	1
0	2778	948.424225277389	2
0	2779	949.12815398561	1
0	2784	950.114171447779	2
0	2788	951.58456768263	3
0	2789	951.863830028368	2
0	2791	952.048690931437	1
0	2793	952.319124058383	0
0	2798	960.835579317771	1
0	2802	962.505671639085	2
0	2803	963.233951829313	1
0	2808	965.399631071969	2
0	2812	967.547531146097	3
0	2813	967.699683624092	2
0	2818	967.774764278523	3
0	2819	968.363161329477	2
0	2821	968.690752302745	1
0	2826	970.486510765948	2
0	2827	971.077206989315	1
0	2832	971.335081417813	2
0	2833	972.057852328147	1
0	2835	972.433633018969	0
0	2840	972.875153711263	1
0	2844	973.389335283624	2
0	2848	974.084496539195	3
0	2849	974.29650528913	2
0	2854	974.769249183732	3
0	2858	975.401926185141	4
0	2862	975.79345397552	5
0	2863	975.99552374923	4
0	2868	976.157438521519	5
0	2872	976.371224616353	6
0	2873	977.132438911184	5
0	2875	978.288409670599	4
0	2880	978.546965897027	5
0	2881	979.562508332691	4
0	2883	980.591228526109	3
0	2885	980.839183105844	2
0	2887	982.428976631549	1
0	2889	984.251391141935	0
0	2894	985.261909543085	1
0	2898	985.37575435215	2
0	2902	985.936919170465	3
0	2903	985.93815349146	2
0	2905	986.193460496107	1
0	2910	987.533133962906	2
0	2914	989.460656859249	3
0	2915	989.509821543306	2
0	2917	990.029514542269	1
0	2922	991.206021213306	2
0	2923	991.42848158875	1
0	2928	991.932258104278	2
0	2932	992.789429995047	3
0	2933	992.842377846384	2
0	2938	992.886385421943	3
0	2939	992.89755942265	2
0	2944	994.375598549834	3
0	2945	994.530898438569	2
0	2950	995.832975443467	3
0	2954	997.053956065689	4
0	2955	999.511587799537	3
1	344	101.450414756878	26
1	346	104.128438500387	25
1	350	104.357796550414	24
1	354	105.955528442783	25
1	356	106.980285768828	24
1	360	108.336107458497	25
1	362	109.890496147807	26
1	364	109.896434540149	25
1	368	110.705025603145	24
1	372	111.193191746881	25
1	374	111.411308513249	26
1	376	112.80764766767	27
1	378	113.514900275331	26
1	382	115.83325473921	27
1	384	116.45048774491	26
1	388	116.835171881691	27
1	390	118.294804030018	26
1	394	118.793058172452	27
1	396	120.103544279166	26
1	400	121.898029413926	27
1	402	124.549720898249	26
1	406	124.738116801494	25
1	410	126.231199228597	26
1	412	126.519906799474	25
1	416	126.749162191702	26
1	418	128.402406968644	25
1	422	128.707084963893	26
1	424	129.1006533235	25
1	428	129.382864370897	26
1	430	129.642679651608	27
1	432	131.314205213045	26
1	436	133.442572390829	27
1	438	135.502209653156	26
1	442	137.180543143418	25
1	446	138.099367203127	26
1	448	139.228697000885	25
1	452	139.698829614866	24
1	456	139.951190550193	25
1	458	140.233918657877	26
1	460	141.320507825172	27
1	462	142.638619650697	26
1	466	143.174139334117	25
1	470	143.434309196429	26
1	472	144.52527548081	27
1	474	145.707393568502	26
1	478	146.685800211211	25
1	482	146.806555115437	24
1	486	146.915706054598	25
1	488	146.949467446626	24
1	492	147.464124348901	25
1	494	148.241208432724	26
1	496	150.283018569471	25
1	500	150.515800525214	26
1	502	151.03144352565	25
1	506	152.051718072952	24
1	510	152.698320057422	23
1	514	152.989871613805	24
1	516	153.628212764961	23
1	520	154.146980798714	24
1	522	154.964784259592	25
1	524	155.854905837893	26
1	526	156.966610608193	27
1	528	157.209698244715	26
1	532	158.918337368472	27
1	534	162.504850892716	26
1	538	163.071083370934	25
1	542	163.100493702466	24
1	546	164.887179088567	25
1	548	169.072325646443	24
1	552	171.271508853235	25
1	554	172.329278271493	26
1	556	173.857159001092	25
1	560	174.015609141652	24
1	564	175.16863137169	25
1	566	175.543065394881	24
1	570	175.750552037897	25
1	572	177.692960468592	24
1	576	179.025777310383	25
1	578	180.024916238274	26
1	580	180.665119449843	27
1	582	185.163925078966	26
1	586	185.473317154225	27
1	588	186.435691886578	26
1	592	189.598783924011	27
1	594	189.662536876265	26
1	598	191.394874785397	25
1	602	192.206177674161	26
1	604	197.208398825776	25
1	608	198.704713288529	26
1	610	199.391644762885	25
1	614	199.508358634415	24
1	618	199.650493115938	25
1	620	200.046908834695	26
1	622	200.215626849027	25
1	626	201.017738959199	24
1	630	201.240970250278	25
1	632	201.364882651988	24
1	636	201.400237838491	23
1	640	201.555112078471	24
1	642	201.899160348687	25
1	644	202.377277408332	26
1	646	204.706861468537	25
1	650	204.712525416303	26
1	652	204.72812420539	27
1	654	205.449668161068	26
1	658	208.418629796074	25
1	662	208.731490999251	24
1	666	209.192848402287	23
1	670	209.593655517736	24
1	672	209.869579936102	23
1	676	210.272079828863	24
1	678	211.65108987257	23
1	682	211.797685735387	24
1	684	214.187274674146	25
1	686	215.695953031752	26
1	688	215.986102907719	25
1	692	216.19843094642	24
1	696	216.530522242427	25
1	698	217.132788937495	26
1	700	219.141036160079	27
1	702	219.358858056359	26
1	706	220.838165279499	27
1	708	221.56911416583	26
1	712	225.855047850541	25
1	716	226.002879495793	24
1	720	226.240808371993	25
1	722	226.28910690379	24
1	726	226.417935429012	23
1	730	226.98217394496	24
1	732	228.638365860505	25
1	734	229.26343566573	24
1	738	229.792419890173	25
1	740	230.471485297069	24
1	744	230.860120270917	25
1	746	230.862467968442	24
1	750	231.157880064942	25
1	752	232.140687105444	26
1	754	232.535732264717	25
1	758	232.994244909996	26
1	760	234.129832333759	27
1	762	237.152758088182	26
1	766	240.030702152226	25
1	770	240.459141923224	26
1	772	241.375735080603	27
1	774	242.360155611495	26
1	778	242.379233070885	25
1	782	243.448068539329	24
1	786	243.812412446004	25
1	788	244.754482664042	24
1	792	245.172798903266	25
1	794	245.280276473752	24
1	798	245.39189030472	25
1	800	246.233452642886	26
1	802	246.713753325876	25
1	806	247.859579604414	24
1	810	248.149521453265	25
1	812	249.788970209075	26
1	814	249.810078665025	25
1	818	249.92425583968	24
1	822	250.30621224741	25
1	824	250.531848708751	24
1	828	252.280643275324	23
1	832	252.334126733355	24
1	834	253.439888664298	25
1	836	253.928984313904	24
1	840	255.461078880097	25
1	842	255.607818008429	26
1	844	257.952597928875	27
1	846	259.341261712638	26
1	850	264.280241304884	25
1	854	264.93355433092	26
1	856	268.242394476179	25
1	860	268.857735947154	26
1	862	270.423060472683	27
1	864	272.530157733388	26
1	868	273.38627515438	25
1	872	274.040845086477	24
1	876	274.070616260505	25
1	878	274.366859627734	26
1	880	274.830115274156	25
1	884	275.079192072458	26
1	886	276.639284777209	25
1	890	276.820546339509	26
1	892	278.689754130883	27
1	894	279.721585876122	26
1	898	280.199448375086	25
1	902	281.64935865645	26
1	904	283.452742217894	25
1	908	283.495511845131	24
1	912	284.09524537648	23
1	916	284.192656791876	24
1	918	284.229720115997	25
1	920	284.494852921918	26
1	922	284.785676675986	27
1	924	285.032641801935	26
1	928	285.300713450636	25
1	932	287.11021445781	26
1	934	288.26664925566	25
1	938	288.353108104286	24
1	942	289.511497116805	23
1	946	290.867217190229	22
1	950	291.255815668176	23
1	952	292.449922141271	24
1	954	293.518321775466	23
1	958	295.146276632641	24
1	960	296.588832375878	23
1	964	296.763270229486	24
1	966	297.093197219572	25
1	968	297.821050973296	24
1	972	297.826235933875	25
1	974	298.339215352298	24
1	978	300.269289652573	25
1	980	302.718203120336	26
1	982	302.773302597286	25
1	986	302.971070830886	24
1	990	303.855775082102	25
1	992	304.742286047809	26
1	994	304.816624123811	27
1	996	305.064961489999	26
1	1000	305.803855681896	25
1	1004	305.999933283403	26
1	1006	307.87057304537	27
1	1008	308.136809350712	26
1	1012	308.665324044362	25
1	1016	308.953136685196	26
1	1018	310.229688170662	25
1	1022	310.679017106013	26
1	1024	311.56887808647	25
1	1028	312.434935959238	26