version 3
run General-27-20221103-10:28:22-6760
attr configname General
attr datetime 20221103-10:28:22
attr datetimef 20221103-102822
attr experiment General
attr inifile block.ini
attr iterationvars "$0=3, $1=30"
attr iterationvarsd 3/30
attr iterationvarsf 3,30-
attr measurement "$0=3, $1=30"
attr network Block
attr processid 6760
attr repetition 2
attr replication #2
attr resultdir results
attr runnumber 27
attr seedset 27
config network Block
config repeat 5
config sim-time-limit 1000s
config warmup-period 100s
config **.alloca.resourceModuleName "\"risorse\""
config **.dealloca.resourceModuleName "\"risorse\""
config **.is.delay exponential(3s)
config **.servente.serviceTime exponential(3s)
config **.dealloca.resourceAmount 2
config **.alloca.resourceAmount 2
config **.risorse.amount 6
config **.sorgente.numJobs (30)
config **.result-recording-modes all

vector 0 Block.is delayedJobs:vector ETV
attr interpolationmode sample-hold
attr recordingmode vector
attr title "number of delayed jobs"
vector 1 Block.alloca queueLength:vector ETV
attr interpolationmode sample-hold
attr recordingmode vector
attr title "queue length"
vector 2 Block.servente queueLength:vector ETV
attr interpolationmode sample-hold
attr recordingmode vector
attr title "queue length"
vector 3 Block.servente queueingTime:vector ETV
attr interpolationmode none
attr recordingmode vector
attr title "queueing time at dequeue"
attr unit s
vector 4 Block.alloca queueingTime:vector ETV
attr interpolationmode none
attr recordingmode vector
attr title "queueing time at dequeue"
attr unit s
vector 5 Block.risorse amount:vector ETV
attr interpolationmode sample-hold
attr recordingmode vector
attr title "available resource"
0	307	101.032817492436	1
0	309	102.761408630352	0
0	314	104.497836940824	1
0	315	106.70157314123	0
0	320	107.294161489309	1
0	324	108.018681424555	2
0	325	113.589808897259	1
0	327	115.745381163815	0
0	332	119.582786629564	1
0	336	120.479670302024	2
0	340	120.725389079164	3
0	341	121.598295214825	2
0	343	121.64608736409	1
0	348	122.710816613397	2
0	349	123.200280762715	1
0	354	128.897643045802	2
0	355	129.606321677066	1
0	360	130.479529941735	2
0	361	133.106200714531	1
0	366	133.396721887378	2
0	367	136.536774092084	1
0	369	137.089256772221	0
0	374	140.780574184689	1
0	378	141.226941306167	2
0	382	141.560678821077	3
0	383	141.616098775674	2
0	385	144.940060244316	1
0	387	148.036960686244	0
0	392	155.593207766486	1
0	396	157.20229843634	2
0	397	159.809656500144	1
0	402	162.934196250376	2
0	403	163.764177068727	1
0	405	164.444034140283	0
0	410	165.726242487032	1
0	414	171.2631947148	2
0	415	172.349246627126	1
0	417	176.865209230585	0
0	422	177.020247988606	1
0	426	179.766385124849	2
0	430	179.966045370352	3
0	431	180.098040620556	2
0	436	180.201025529643	3
0	440	181.886517745182	4
0	441	183.320530386072	3
0	443	183.946066719727	2
0	445	184.3564738445	1
0	450	185.395942188705	2
0	451	186.311157075684	1
0	453	187.287126716963	0
0	458	189.684282338451	1
0	459	189.729891049018	0
0	464	197.713282216096	1
0	465	199.212019282555	0
0	470	200.085608064467	1
0	471	200.794019262717	0
0	476	205.118203548727	1
0	477	205.823540282417	0
0	482	207.930620678288	1
0	486	208.566499252395	2
0	490	209.232762172911	3
0	491	209.440799796268	2
0	493	209.880179293715	1
0	498	210.513711818781	2
0	502	211.821528535126	3
0	503	213.668115378173	2
0	508	214.697845921397	3
0	509	215.339601312189	2
0	514	215.670596973262	3
0	515	216.197692304328	2
0	517	216.234159379468	1
0	522	216.641398341054	2
0	523	218.492919445759	1
0	528	218.948283621422	2
0	532	219.671697187309	3
0	533	219.698625946849	2
0	535	220.409918906841	1
0	537	221.838622076514	0
0	542	230.348132725428	1
0	546	230.367963596494	2
0	550	233.035867858269	3
0	551	233.144046316186	2
0	556	233.233392183452	3
0	560	233.365938732116	4
0	561	234.179402087669	3
0	563	237.400370990588	2
0	568	237.545611705403	3
0	569	238.15266640236	2
0	571	239.447029110352	1
0	576	242.524188547588	2
0	577	245.422808289862	1
0	582	246.224232531178	2
0	583	247.846474831912	1
0	585	248.368769549565	0
0	590	251.691266065315	1
0	594	252.149963488743	2
0	595	255.401259989814	1
0	600	256.04834524873	2
0	601	256.05244044961	1
0	606	256.536010552455	2
0	610	257.607011619909	3
0	611	258.02809878776	2
0	616	261.896513805581	3
0	617	263.842024853141	2
0	622	264.348321848702	3
0	623	264.629212994162	2
0	625	266.009497539749	1
0	630	267.971264209243	2
0	634	268.848545744598	3
0	638	268.967060706779	4
0	639	269.191080529612	3
0	644	270.202525073205	4
0	645	270.385880869257	3
0	647	271.370015309361	2
0	649	271.752961892708	1
0	651	272.298694575359	0
0	656	275.50185424838	1
0	660	275.725629695792	2
0	664	276.813593615645	3
0	668	277.315345250629	4
0	669	277.521244690576	3
0	671	277.953047804347	2
0	673	278.155099353441	1
0	678	279.035801538739	2
0	682	279.706009631807	3
0	686	280.84838074353	4
0	690	281.085604573865	5
0	691	281.952299393534	4
0	693	283.389234956414	3
0	698	283.978738648733	4
0	699	284.693344141575	3
0	701	285.099226878662	2
0	706	285.612440795813	3
0	707	285.896413013857	2
0	709	285.965617638838	1
0	714	287.713590718486	2
0	718	288.564308262757	3
0	719	289.695810478256	2
0	721	289.903399388228	1
0	726	291.571408413953	2
0	727	291.616280173897	1
0	729	292.782098430193	0
0	734	297.250045469541	1
0	735	297.434862411025	0
0	740	297.918820966639	1
0	741	298.523280129868	0
0	746	305.652839818964	1
0	747	306.44003907637	0
0	752	311.810951354849	1
0	753	311.917276419123	0
0	758	312.520241025508	1
0	762	312.828035321634	2
0	763	313.589555531014	1
0	765	315.512935546579	0
0	770	322.395375772968	1
0	774	322.605444947316	2
0	778	324.00573153807	3
0	779	325.534561446827	2
0	781	325.709425694144	1
0	786	326.519167207911	2
0	787	327.911842352303	1
0	789	331.904676922253	0
0	794	334.378044328468	1
0	795	334.738567905659	0
0	800	335.935260281917	1
0	801	336.437196603746	0
0	806	337.828336288458	1
0	807	338.132766793339	0
0	812	338.341752584358	1
0	813	338.698072492544	0
0	818	345.308652388869	1
0	822	345.945459175605	2
0	823	347.089957181484	1
0	828	349.362371247918	2
0	832	349.603065743903	3
0	836	350.735886872927	4
0	837	354.140450981374	3
0	842	354.77767123829	4
0	843	354.874309456426	3
0	845	355.28680392261	2
0	847	355.805706775639	1
0	849	356.331777406715	0
0	854	357.557204804173	1
0	858	359.16522530627	2
0	862	359.198612297679	3
0	866	360.143924262557	4
0	867	360.523324739778	3
0	869	362.416102798676	2
0	871	365.571038394265	1
0	873	366.340336064642	0
0	878	369.436266606536	1
0	879	371.996808458887	0
0	884	373.121318237183	1
0	885	373.703625002855	0
0	890	375.770156820595	1
0	891	378.45271358232	0
0	896	379.95596103419	1
0	900	384.744392250657	2
0	904	384.966671892191	3
0	905	385.26387778815	2
0	910	385.623887001983	3
0	911	385.711241401744	2
0	913	390.541939192043	1
0	918	397.398283191482	2
0	919	398.181908944801	1
0	924	398.530520826067	2
0	928	399.710328878419	3
0	932	399.754182276127	4
0	936	400.178769187643	5
0	937	400.449998238218	4
0	939	401.113519587236	3
0	941	401.854548630223	2
0	943	402.260915292241	1
0	948	403.962542698376	2
0	949	404.795642027009	1
0	951	407.531268259731	0
0	956	408.688239392552	1
0	960	412.085520995137	2
0	961	412.858020203878	1
0	963	414.672480825889	0
0	968	414.69373269632	1
0	969	416.251070493124	0
0	974	417.522332279055	1
0	975	421.128414002628	0
0	980	423.460108888769	1
0	984	423.885481639204	2
0	988	424.02270285941	3
0	989	425.665372332295	2
0	994	426.006130570765	3
0	998	427.285047755071	4
0	999	428.143748049026	3
0	1001	429.54258584614	2
0	1006	430.430701330898	3
0	1007	430.538073448407	2
0	1012	431.841807637185	3
0	1013	433.229584200968	2
0	1015	434.990022695081	1
0	1017	435.328715160826	0
0	1022	436.345029961346	1
0	1026	440.115694508235	2
0	1027	440.983718582601	1
0	1032	441.662383940591	2
0	1033	441.897485499252	1
0	1038	446.139353476699	2
0	1039	446.417827991025	1
0	1041	446.660415375082	0
0	1046	466.23734668624	1
0	1047	468.589790627826	0
0	1052	472.235559646063	1
0	1053	472.625878366268	0
0	1058	482.722352353569	1
0	1062	484.009912602881	2
0	1063	484.982096541631	1
0	1065	486.304454774323	0
0	1070	486.413501373743	1
0	1074	489.714313588897	2
0	1075	492.426388399693	1
0	1080	493.699247324106	2
0	1081	495.070430221149	1
0	1083	495.553306306757	0
0	1088	498.616085050868	1
0	1089	499.576495064569	0
0	1094	513.658913480629	1
0	1098	513.958172649072	2
0	1102	515.759513718992	3
0	1103	516.431160896851	2
0	1105	516.951413685252	1
0	1107	519.2750726875	0
0	1112	521.520047361863	1
0	1113	521.657534612933	0
0	1118	530.905233457367	1
0	1122	533.34880367372	2
0	1123	533.384359406688	1
0	1125	534.10674535774	0
0	1130	536.938467195857	1
0	1134	537.253554620131	2
0	1135	540.309714415195	1
0	1137	545.170165112668	0
0	1142	546.827472952341	1
0	1143	548.868045077976	0
0	1148	552.911013578182	1
0	1149	557.656988658134	0
0	1154	561.730855309166	1
0	1158	562.496139250845	2
0	1159	566.710248967947	1
0	1164	568.104630217787	2
0	1168	568.283906952393	3
0	1172	569.605637393298	4
0	1173	571.53039729246	3
0	1175	571.580166621691	2
0	1180	574.130819085691	3
0	1181	574.20520010332	2
0	1183	574.57936866426	1
0	1185	576.247913402096	0
0	1190	578.122783906133	1
0	1191	578.526954310126	0
0	1196	578.602430069466	1
0	1197	578.818082509957	0
0	1202	581.467322483724	1
0	1203	582.972864993932	0
0	1208	585.571299517696	1
0	1212	586.902033760557	2
0	1216	589.713475965507	3
0	1217	590.980945037334	2
0	1219	591.329285878916	1
0	1224	592.664822681805	2
0	1228	594.134399269697	3
0	1229	595.656132975691	2
0	1234	595.712795925993	3
0	1235	597.357229945969	2
0	1240	600.220340951083	3
0	1241	601.608877793777	2
0	1243	602.119218049461	1
0	1248	602.409540413361	2
0	1252	602.647715261538	3
0	1256	603.085694772827	4
0	1260	603.300373309165	5
0	1261	603.448970709829	4
0	1263	603.680884746363	3
0	1265	605.176866015313	2
0	1267	606.683162567743	1
0	1269	609.875727659858	0
0	1274	613.664603280426	1
0	1275	614.106611213081	0
0	1280	619.126567936158	1
0	1281	621.418268569302	0
0	1286	627.225628245255	1
0	1287	627.817801660116	0
0	1292	629.665333962343	1
0	1293	629.926323036095	0
0	1298	634.768979123959	1
0	1299	636.342450197661	0
0	1304	638.52373873291	1
0	1305	640.68950876314	0
0	1310	641.661230554899	1
0	1314	642.963924992527	2
0	1315	643.466906299438	1
0	1320	649.157946234262	2
0	1321	650.075772987938	1
0	1326	650.1875875664	2
0	1327	650.746257554535	1
0	1329	656.530031849429	0
0	1334	659.736688811063	1
0	1335	660.335634153476	0
0	1340	662.214687597593	1
0	1344	662.216814388198	2
0	1348	662.286582017491	3
0	1349	663.330298295024	2
0	1351	665.077484282351	1
0	1356	666.476456783646	2
0	1360	668.76516353123	3
0	1361	668.837410979876	2
0	1363	668.935069859509	1
0	1368	670.03538284606	2
0	1372	671.371029439967	3
0	1376	671.373851142859	4
0	1377	675.140093105485	3
0	1379	676.432874314889	2
0	1381	678.20157209186	1
0	1383	681.730536267904	0
0	1388	685.838570377539	1
0	1389	687.560150455316	0
0	1394	690.610210850369	1
0	1395	696.706483778216	0
0	1400	696.952993651913	1
0	1404	697.194105912398	2
0	1405	699.630069849453	1
0	1410	700.757582255041	2
0	1411	701.699760341662	1
0	1416	706.585702135817	2
0	1417	706.707826864189	1
0	1419	707.563039712897	0
0	1424	715.495400104097	1
0	1428	717.35710396694	2
0	1429	717.480495251683	1
0	1431	717.662178964099	0
0	1436	719.728480079137	1
0	1440	719.978669256966	2
0	1441	722.034649341175	1
0	1446	722.863880435149	2
0	1450	723.561340967934	3
0	1454	723.611002495694	4
0	1455	723.874220785122	3
0	1460	724.658985209205	4
0	1461	724.774988532082	3
0	1463	725.893317336502	2
0	1465	726.274362723041	1
0	1470	727.253221778047	2
0	1471	727.791908271499	1
0	1473	728.372179575573	0
0	1478	739.258037689537	1
0	1482	740.214018003932	2
0	1483	740.919959200089	1
0	1488	742.617264232874	2
0	1492	743.626339081429	3
0	1493	744.309115172521	2
0	1495	747.468113780881	1
0	1500	751.387784486553	2
0	1504	752.562458330454	3
0	1505	752.970342536494	2
0	1507	753.360246298499	1
0	1512	753.819816436966	2
0	1516	754.844834023161	3
0	1520	755.141411515338	4
0	1521	755.784454250839	3
0	1523	756.189247136501	2
0	1525	758.470336073916	1
0	1527	758.663545328019	0
0	1532	765.667324261292	1
0	1536	767.792188945673	2
0	1537	768.129936710714	1
0	1539	769.538174579359	0
0	1544	769.712273866186	1
0	1545	770.656604296281	0
0	1550	771.883265541991	1
0	1551	772.03566230613	0
0	1556	775.272606381276	1
0	1557	775.642370350107	0
0	1562	785.983549576629	1
0	1563	787.157645949735	0
0	1568	793.328562251284	1
0	1572	794.987084548318	2
0	1573	795.165445712334	1
0	1575	798.561440541303	0
0	1580	805.216740176613	1
0	1581	805.253789734101	0
0	1586	807.889083843283	1
0	1587	810.790632155569	0
0	1592	816.547688145909	1
0	1593	817.91202382964	0
0	1598	819.187168356499	1
0	1602	821.793645943535	2
0	1606	823.128090458814	3
0	1607	823.726041052336	2
0	1609	824.898267749399	1
0	1614	826.012254800917	2
0	1615	826.825392718409	1
0	1620	827.758538228109	2
0	1621	829.79389833136	1
0	1623	830.986346588169	0
0	1628	836.567350354157	1
0	1632	837.193424982088	2
0	1633	838.887911677365	1
0	1635	839.038727477581	0
0	1640	839.946545484505	1
0	1644	839.954420819551	2
0	1645	841.593962950256	1
0	1647	842.301163918834	0
0	1652	843.324758843301	1
0	1653	846.468623333403	0
0	1658	847.452141248957	1
0	1662	847.965498936087	2
0	1663	848.716637447402	1
0	1665	853.050401836411	0
0	1670	855.301028904504	1
0	1671	856.040875508838	0
0	1676	858.425690012107	1
0	1677	860.015864675525	0
0	1682	865.142589834319	1
0	1686	865.297488338097	2
0	1687	866.30184993019	1
0	1689	867.443519071743	0
0	1694	872.514044719267	1
0	1698	875.848337391848	2
0	1699	877.087134461085	1
0	1701	883.132471044373	0
0	1706	893.162547180917	1
0	1710	894.962718561766	2
0	1711	896.517913404562	1
0	1716	902.875642806979	2
0	1720	902.878437747257	3
0	1721	903.739379098927	2
0	1723	904.216828143798	1
0	1728	904.404077960247	2
0	1732	904.569430683696	3
0	1736	905.409160036382	4
0	1737	906.238363684562	3
0	1739	910.011799168794	2
0	1744	910.299656153539	3
0	1745	910.635384229551	2
0	1747	911.67036761035	1
0	1749	912.300396336517	0
0	1754	916.654484720151	1
0	1758	917.892316707039	2
0	1759	918.576406188724	1
0	1764	919.605203042402	2
0	1765	919.767963269385	1
0	1767	920.634589224739	0
0	1772	922.283857819796	1
0	1773	924.26019138929	0
0	1778	924.388182889838	1
0	1779	928.235256317888	0
0	1784	931.112406579091	1
0	1785	936.046258187116	0
0	1790	936.932848893191	1
0	1794	937.227489476777	2
0	1795	937.735768106018	1
0	1797	938.068060953886	0
0	1802	941.743152713854	1
0	1803	944.223401438699	0
0	1808	948.615095054054	1
0	1812	949.568351086986	2
0	1816	949.913269864228	3
0	1820	950.369818785695	4
0	1821	950.372761627025	3
0	1823	950.645758530672	2
0	1825	953.550562718584	1
0	1827	953.875037799174	0
0	1832	954.010596638551	1
0	1836	954.254892229997	2
0	1837	954.891368266033	1
0	1839	955.628639436728	0
0	1844	956.380944054997	1
0	1845	959.53610135079	0
0	1850	961.214502888044	1
0	1854	964.960715934127	2
0	1858	965.88670714523	3
0	1862	966.4374593576	4
0	1863	966.444340440717	3
0	1865	966.933802170975	2
0	1867	967.488135709617	1
0	1872	970.538714270388	2
0	1873	970.589503376696	1
0	1878	972.086692477277	2
0	1879	972.485681084283	1
0	1884	975.204146714662	2
0	1888	976.13119377515	3
0	1889	976.916276656904	2
0	1891	978.334212729898	1
0	1893	978.568036070888	0
0	1898	982.849029677415	1
0	1902	984.553394135563	2
0	1906	984.785133444213	3
0	1910	985.48656052835	4
0	1911	985.582467097672	3
0	1913	986.541383785018	2
0	1915	987.539866008402	1
0	1920	988.716479730121	2
0	1921	989.07606922142	1
0	1926	989.821416987359	2
0	1930	992.630452886782	3
0	1934	993.300098871512	4
0	1935	993.399747450586	3
0	1937	996.103765272086	2
0	1939	997.650734154588	1
0	1944	998.666807165837	2
0	1945	998.685228507214	1
0	1947	999.410995908711	0
1	308	101.032817492436	26
1	310	102.761408630352	27
1	312	104.497836940824	26
1	316	106.70157314123	27
1	318	107.294161489309	26
1	322	108.018681424555	25
1	326	113.589808897259	26
1	328	115.745381163815	27
1	330	119.582786629564	26
1	334	120.479670302024	25
1	338	120.725389079164	24
1	342	121.598295214825	25
1	344	121.64608736409	26
1	346	122.710816613397	25
1	350	123.200280762715	26
1	352	128.897643045802	25
1	356	129.606321677066	26
1	358	130.479529941735	25
1	362	133.106200714531	26
1	364	133.396721887378	25
1	368	136.536774092084	26
1	370	137.089256772221	27
1	372	140.780574184689	26
1	376	141.226941306167	25
1	380	141.560678821077	24
1	384	141.616098775674	25
1	386	144.940060244316	26
1	388	148.036960686244	27
1	390	155.593207766486	26
1	394	157.20229843634	25
1	398	159.809656500144	26
1	400	162.934196250376	25
1	404	163.764177068727	26
1	406	164.444034140283	27
1	408	165.726242487032	26
1	412	171.2631947148	25
1	416	172.349246627126	26
1	418	176.865209230585	27
1	420	177.020247988606	26
1	424	179.766385124849	25
1	428	179.966045370352	24
1	432	180.098040620556	25
1	434	180.201025529643	24
1	438	181.886517745182	23
1	442	183.320530386072	24
1	444	183.946066719727	25
1	446	184.3564738445	26
1	448	185.395942188705	25
1	452	186.311157075684	26
1	454	187.287126716963	27
1	456	189.684282338451	26
1	460	189.729891049018	27
1	462	197.713282216096	26
1	466	199.212019282555	27
1	468	200.085608064467	26
1	472	200.794019262717	27
1	474	205.118203548727	26
1	478	205.823540282417	27
1	480	207.930620678288	26
1	484	208.566499252395	25
1	488	209.232762172911	24
1	492	209.440799796268	25
1	494	209.880179293715	26
1	496	210.513711818781	25
1	500	211.821528535126	24
1	504	213.668115378173	25
1	506	214.697845921397	24
1	510	215.339601312189	25
1	512	215.670596973262	24
1	516	216.197692304328	25
1	518	216.234159379468	26
1	520	216.641398341054	25
1	524	218.492919445759	26
1	526	218.948283621422	25
1	530	219.671697187309	24
1	534	219.698625946849	25
1	536	220.409918906841	26
1	538	221.838622076514	27
1	540	230.348132725428	26
1	544	230.367963596494	25
1	548	233.035867858269	24
1	552	233.144046316186	25
1	554	233.233392183452	24
1	558	233.365938732116	23
1	562	234.179402087669	24
1	564	237.400370990588	25
1	566	237.545611705403	24
1	570	238.15266640236	25
1	572	239.447029110352	26
1	574	242.524188547588	25
1	578	245.422808289862	26
1	580	246.224232531178	25
1	584	247.846474831912	26
1	586	248.368769549565	27
1	588	251.691266065315	26
1	592	252.149963488743	25
1	596	255.401259989814	26
1	598	256.04834524873	25
1	602	256.05244044961	26
1	604	256.536010552455	25
1	608	257.607011619909	24
1	612	258.02809878776	25
1	614	261.896513805581	24
1	618	263.842024853141	25
1	620	264.348321848702	24
1	624	264.629212994162	25
1	626	266.009497539749	26
1	628	267.971264209243	25
1	632	268.848545744598	24
1	636	268.967060706779	23
1	640	269.191080529612	24
1	642	270.202525073205	23
1	646	270.385880869257	24
1	648	271.370015309361	25
1	650	271.752961892708	26
1	652	272.298694575359	27
1	654	275.50185424838	26
1	658	275.725629695792	25
1	662	276.813593615645	24
1	666	277.315345250629	23
1	670	277.521244690576	24
1	672	277.953047804347	25
1	674	278.155099353441	26
1	676	279.035801538739	25
1	680	279.706009631807	24
1	684	280.84838074353	23
1	688	281.085604573865	22
1	692	281.952299393534	23
1	694	283.389234956414	24
1	696	283.978738648733	23
1	700	284.693344141575	24
1	702	285.099226878662	25
1	704	285.612440795813	24
1	708	285.896413013857	25
1	710	285.965617638838	26
1	712	287.713590718486	25
1	716	288.564308262757	24
1	720	289.695810478256	25
1	722	289.903399388228	26
1	724	291.571408413953	25
1	728	291.616280173897	26
1	730	292.782098430193	27
1	732	297.250045469541	26
1	736	297.434862411025	27
1	738	297.918820966639	26
1	742	298.523280129868	27
1	744	305.652839818964	26
1	748	306.44003907637	27
1	750	311.810951354849	26
1	754	311.917276419123	27
1	756	312.520241025508	26
1	760	312.828035321634	25
1	764	313.589555531014	26
1	766	315.512935546579	27
1	768	322.395375772968	26
1	772	322.605444947316	25
1	776	324.00573153807	24
1	780	325.534561446827	25
1	782	325.709425694144	26
1	784	326.519167207911	25
1	788	327.911842352303	26
1	790	331.904676922253	27
1	792	334.378044328468	26
1	796	334.738567905659	27
1	798	335.935260281917	26
1	802	336.437196603746	27
1	804	337.828336288458	26
1	808	338.132766793339	27
1	810	338.341752584358	26
1	814	338.698072492544	27
1	816	345.308652388869	26
1	820	345.945459175605	25
1	824	347.089957181484	26
1	826	349.362371247918	25
1	830	349.603065743903	24
1	834	350.735886872927	23
1	838	354.140450981374	24
1	840	354.77767123829	23
1	844	354.874309456426	24
1	846	355.28680392261	25
1	848	355.805706775639	26
1	850	356.331777406715	27
1	852	357.557204804173	26
1	856	359.16522530627	25
1	860	359.198612297679	24
1	864	360.143924262557	23
1	868	360.523324739778	24
1	870	362.416102798676	25
1	872	365.571038394265	26
1	874	366.340336064642	27
1	876	369.436266606536	26
1	880	371.996808458887	27
1	882	373.121318237183	26
1	886	373.703625002855	27
1	888	375.770156820595	26
1	892	378.45271358232	27
1	894	379.95596103419	26
1	898	384.744392250657	25
1	902	384.966671892191	24
1	906	385.26387778815	25
1	908	385.623887001983	24
1	912	385.711241401744	25
1	914	390.541939192043	26
1	916	397.398283191482	25
1	920	398.181908944801	26
1	922	398.530520826067	25
1	926	399.710328878419	24
1	930	399.754182276127	23
1	934	400.178769187643	22
1	938	400.449998238218	23
1	940	401.113519587236	24
1	942	401.854548630223	25
1	944	402.260915292241	26
1	946	403.962542698376	25
1	950	404.795642027009	26
1	952	407.531268259731	27
1	954	408.688239392552	26
1	958	412.085520995137	25
1	962	412.858020203878	26
1	964	414.672480825889	27
1	966	414.69373269632	26
1	970	416.251070493124	27
1	972	417.522332279055	26
1	976	421.128414002628	27
1	978	423.460108888769	26
1	982	423.885481639204	25
1	986	424.02270285941	24
1	990	425.665372332295	25
1	992	426.006130570765	24
1	996	427.285047755071	23
1	1000	428.143748049026	24
1	1002	429.54258584614	25
1	1004	430.430701330898	24
1	1008	430.538073448407	25
1	1010	431.841807637185	24
1	1014	433.229584200968	25
1	1016	434.990022695081	26
1	1018	435.328715160826	27
1	1020	436.345029961346	26
1	1024	440.115694508235	25
1	1028	440.983718582601	26
1	1030	441.662383940591	25
1	1034	441.897485499252	26
1	1036	446.139353476699	25
1	1040	446.417827991025	26
1	1042	446.660415375082	27
1	1044	466.23734668624	26
1	1048	468.589790627826	27
1	1050	472.235559646063	26
1	1054	472.625878366268	27
1	1056	482.722352353569	26
1	1060	484.009912602881	25
1	1064	484.982096541631	26
1	1066	486.304454774323	27
1	1068	486.413501373743	26
1	1072	489.714313588897	25
1	1076	492.426388399693	26
1	1078	493.699247324106	25
1	1082	495.070430221149	26
1	1084	495.553306306757	27
1	1086	498.616085050868	26
1	1090	499.576495064569	27
1	1092	513.658913480629	26
1	1096	513.958172649072	25
1	1100	515.759513718992	24
1	1104	516.431160896851	25
1	1106	516.951413685252	26
1	1108	519.2750726875	27
1	1110	521.520047361863	26
1	1114	521.657534612933	27
1	1116	530.905233457367	26
1	1120	533.34880367372	25
1	1124	533.384359406688	26
1	1126	534.10674535774	27
1	1128	536.938467195857	26
1	1132	537.253554620131	25
1	1136	540.309714415195	26
1	1138	545.170165112668	27
1	1140	546.827472952341	26
1	1144	548.868045077976	27
1	1146	552.911013578182	26
1	1150	557.656988658134	27
1	1152	561.730855309166	26
1	1156	562.496139250845	25
1	1160	566.710248967947	26
1	1162	568.104630217787	25
1	1166	568.283906952393	24
1	1170	569.605637393298	23
1	1174	571.53039729246	24
1	1176	571.580166621691	25
1	1178	574.130819085691	24
1	1182	574.20520010332	25
1	1184	574.57936866426	26
1	1186	576.247913402096	27
1	1188	578.122783906133	26
1	1192	578.526954310126	27
1	1194	578.602430069466	26
1	1198	578.818082509957	27
1	1200	581.467322483724	26
1	1204	582.972864993932	27
1	1206	585.571299517696	26
1	1210	586.902033760557	25
1	1214	589.713475965507	24
1	1218	590.980945037334	25
1	1220	591.329285878916	26
1	1222	592.664822681805	25
1	1226	594.134399269697	24
1	1230	595.656132975691	25
1	1232	595.712795925993	24
1	1236	597.357229945969	25
1	1238	600.220340951083	24
1	1242	601.608877793777	25
1	1244	602.119218049461	26
1	1246	602.409540413361	25
1	1250	602.647715261538	24
1	1254	603.085694772827	23
1	1258	603.300373309165	22
1	1262	603.448970709829	23
1	1264	603.680884746363	24
1	1266	605.176866015313	25
1	1268	606.683162567743	26
1	1270	609.875727659858	27
1	1272	613.664603280426	26
1	1276	614.106611213081	27
1	1278	619.126567936158	26
1	1282	621.418268569302	27
1	1284	627.225628245255	26
1	1288	627.817801660116	27
1	1290	629.665333962343	26
1	1294	629.926323036095	27
1	1296	634.768979123959	26
1	1300	636.342450197661	27
1	1302	638.52373873291	26
1	1306	640.68950876314	27
1	1308	641.661230554899	26
1	1312	642.963924992527	25
1	1316	643.466906299438	26
1	1318	649.157946234262	25
1	1322	650.075772987938	26
1	1324	650.1875875664	25
1	1328	650.746257554535	26
1	1330	656.530031849429	27
1	1332	659.736688811063	26
1	1336	660.335634153476	27
1	1338	662.214687597593	26
1	1342	662.216814388198	25
1	1346	662.286582017491	24
1	1350	663.330298295024	25
1	1352	665.077484282351	26
1	1354	666.476456783646	25
1	1358	668.76516353123	24
1	1362	668.837410979876	25
1	1364	668.935069859509	26
1	1366	670.03538284606	25
1	1370	671.371029439967	24
1	1374	671.373851142859	23
1	1378	675.140093105485	24
1	1380	676.432874314889	25
1	1382	678.20157209186	26
1	1384	681.730536267904	27
1	1386	685.838570377539	26
1	1390	687.560150455316	27
1	1392	690.610210850369	26
1	1396	696.706483778216	27
1	1398	696.952993651913	26
1	1402	697.194105912398	25
1	1406	699.630069849453	26
1	1408	700.757582255041	25
1	1412	701.699760341662	26
1	1414	706.585702135817	25
1	1418	706.707826864189	26
1	1420	707.563039712897	27
1	1422	715.495400104097	26
1	1426	717.35710396694	25
1	1430	717.480495251683	26
1	1432	717.662178964099	27
1	1434	719.728480079137	26
1	1438	719.978669256966	25
1	1442	722.034649341175	26
1	1444	722.863880435149	25
1	1448	723.561340967934	24
1	1452	723.611002495694	23
1	1456	723.874220785122	24
1	1458	724.658985209205	23
1	1462	724.774988532082	24
1	1464	725.893317336502	25
1	1466	726.274362723041	26
1	1468	727.253221778047	25
1	1472	727.791908271499	26
1	1474	728.372179575573	27
1	1476	739.258037689537	26
1	1480	740.214018003932	25
1	1484	740.919959200089	26
1	1486	742.617264232874	25
1	1490	743.626339081429	24
1	1494	744.309115172521	25
1	1496	747.468113780881	26
1	1498	751.387784486553	25
1	1502	752.562458330454	24
1	1506	752.970342536494	25
1	1508	753.360246298499	26
1	1510	753.819816436966	25
1	1514	754.844834023161	24
1	1518	755.141411515338	23
1	1522	755.784454250839	24
1	1524	756.189247136501	25
1	1526	758.470336073916	26
1	1528	758.663545328019	27
1	1530	765.667324261292	26
1	1534	767.792188945673	25
1	1538	768.129936710714	26
1	1540	769.538174579359	27
1	1542	769.712273866186	26
1	1546	770.656604296281	27
1	1548	771.883265541991	26
1	1552	772.03566230613	27
1	1554	775.272606381276	26
1	1558	775.642370350107	27
1	1560	785.983549576629	26
1	1564	787.157645949735	27
1	1566	793.328562251284	26
1	1570	794.987084548318	25
1	1574	795.165445712334	26
1	1576	798.561440541303	27
1	1578	805.216740176613	26
1	1582	805.253789734101	27
1	1584	807.889083843283	26
1	1588	810.790632155569	27
1	1590	816.547688145909	26
1	1594	817.91202382964	27
1	1596	819.187168356499	26
1	1600	821.793645943535	25
1	1604	823.128090458814	24
1	1608	823.726041052336	25
1	1610	824.898267749399	26
1	1612	826.012254800917	25
1	1616	826.825392718409	26
1	1618	827.758538228109	25
1	1622	829.79389833136	26
1	1624	830.986346588169	27
1	1626	836.567350354157	26
1	1630	837.193424982088	25
1	1634	838.887911677365	26
1	1636	839.038727477581	27
1	1638	839.946545484505	26
1	1642	839.954420819551	25
1	1646	841.593962950256	26
1	1648	842.301163918834	27
1	1650	843.324758843301	26
1	1654	846.468623333403	27
1	1656	847.452141248957	26
1	1660	847.965498936087	25
1	1664	848.716637447402	26
1	1666	853.050401836411	27
1	1668	855.301028904504	26
1	1672	856.040875508838	27
1	1674	858.425690012107	26
1	1678	860.015864675525	27
1	1680	865.142589834319	26
1	1684	865.297488338097	25
1	1688	866.30184993019	26
1	1690	867.443519071743	27
1	1692	872.514044719267	26
1	1696	875.848337391848	25
1	1700	877.087134461085	26
1	1702	883.132471044373	27
1	1704	893.162547180917	26
1	1708	894.962718561766	25
1	1712	896.517913404562	26
1	1714	902.875642806979	25
1	1718	902.878437747257	24
1	1722	903.739379098927	25
1	1724	904.216828143798	26
1	1726	904.404077960247	25
1	1730	904.569430683696	24
1	1734	905.409160036382	23
1	1738	906.238363684562	24
1	1740	910.011799168794	25
1	1742	910.299656153539	24
1	1746	910.635384229551	25
1	1748	911.67036761035	26
1	1750	912.300396336517	27
1	1752	916.654484720151	26
1	1756	917.892316707039	25
1	1760	918.576406188724	26
1	1762	919.605203042402	25
1	1766	919.767963269385	26
1	1768	920.634589224739	27
1	1770	922.283857819796	26
1	1774	924.26019138929	27
1	1776	924.388182889838	26
1	1780	928.235256317888	27
1	1782	931.112406579091	26
1	1786	936.046258187116	27
1	1788	936.932848893191	26
1	1792	937.227489476777	25
1	1796	937.735768106018	26
1	1798	938.068060953886	27
1	1800	941.743152713854	26
1	1804	944.223401438699	27
1	1806	948.615095054054	26
1	1810	949.568351086986	25
1	1814	949.913269864228	24
1	1818	950.369818785695	23
1	1822	950.372761627025	24
1	1824	950.645758530672	25
1	1826	953.550562718584	26
1	1828	953.875037799174	27
1	1830	954.010596638551	26
1	1834	954.254892229997	25
1	1838	954.891368266033	26
1	1840	955.628639436728	27
1	1842	956.380944054997	26
1	1846	959.53610135079	27
1	1848	961.214502888044	26
1	1852	964.960715934127	25
1	1856	965.88670714523	24
1	1860	966.4374593576	23
1	1864	966.444340440717	24
1	1866	966.933802170975	25
1	1868	967.488135709617	26
1	1870	970.538714270388	25
1	1874	970.589503376696	26
1	1876	972.086692477277	25
1	1880	972.485681084283	26
1	1882	975.204146714662	25
1	1886	976.13119377515	24
1	1890	976.916276656904	25
1	1892	978.334212729898	26
1	1894	978.568036070888	27
1	1896	982.849029677415	26
1	1900	984.553394135563	25
1	1904	984.785133444213	24
1	1908	985.48656052835	23
1	1912	985.582467097672	24
1	1914	986.541383785018	25
1	1916	987.539866008402	26
1	1918	988.716479730121	25
1	1922	989.07606922142	26
1	1924	989.821416987359	25