version 3
run General-9-20221103-10:28:21-6760
attr configname General
attr datetime 20221103-10:28:21
attr datetimef 20221103-102821
attr experiment General
attr inifile block.ini
attr iterationvars "$0=2, $1=20"
attr iterationvarsd 2/20
attr iterationvarsf 2,20-
attr measurement "$0=2, $1=20"
attr network Block
attr processid 6760
attr repetition 4
attr replication #4
attr resultdir results
attr runnumber 9
attr seedset 9
config network Block
config repeat 5
config sim-time-limit 1000s
config warmup-period 100s
config **.alloca.resourceModuleName "\"risorse\""
config **.dealloca.resourceModuleName "\"risorse\""
config **.is.delay exponential(3s)
config **.servente.serviceTime exponential(2s)
config **.dealloca.resourceAmount 2
config **.alloca.resourceAmount 2
config **.risorse.amount 6
config **.sorgente.numJobs (20)
config **.result-recording-modes all

vector 0 Block.servente queueLength:vector ETV
attr interpolationmode sample-hold
attr recordingmode vector
attr title "queue length"
vector 1 Block.servente queueingTime:vector ETV
attr interpolationmode none
attr recordingmode vector
attr title "queueing time at dequeue"
attr unit s
vector 2 Block.alloca queueLength:vector ETV
attr interpolationmode sample-hold
attr recordingmode vector
attr title "queue length"
vector 3 Block.alloca queueingTime:vector ETV
attr interpolationmode none
attr recordingmode vector
attr title "queueing time at dequeue"
attr unit s
vector 4 Block.risorse amount:vector ETV
attr interpolationmode sample-hold
attr recordingmode vector
attr title "available resource"
vector 5 Block.is delayedJobs:vector ETV
attr interpolationmode sample-hold
attr recordingmode vector
attr title "number of delayed jobs"
0	327	100.092541246148	1
0	329	100.092541246148	2
0	335	102.332505169049	1
0	337	102.332505169049	2
0	339	102.880347981727	1
0	341	102.880347981727	2
0	343	103.271065172654	1
0	345	103.271065172654	2
0	349	103.545814183929	1
0	351	103.545814183929	2
0	353	103.691139575999	1
0	355	103.691139575999	2
0	363	105.709996690643	1
0	365	105.709996690643	2
0	371	109.792269981798	1
0	373	109.792269981798	2
0	375	110.666944604094	1
0	377	110.666944604094	2
0	379	110.737747524277	1
0	381	110.737747524277	2
0	385	113.758845452217	1
0	387	113.758845452217	2
0	393	115.054026768653	1
0	395	115.054026768653	2
0	397	115.201792881447	1
0	399	115.201792881447	2
0	407	119.873381699298	1
0	409	119.873381699298	2
0	413	123.135134211308	1
0	415	123.135134211308	2
0	417	123.144282795442	1
0	419	123.144282795442	2
0	421	123.635259460602	1
0	423	123.635259460602	2
0	431	126.250707013112	1
0	433	126.250707013112	2
0	437	127.021312335186	1
0	439	127.021312335186	2
0	443	128.613305769595	1
0	445	128.613305769595	2
0	447	128.688236291918	1
0	449	128.688236291918	2
0	453	132.087311151519	1
0	455	132.087311151519	2
0	459	133.546713742552	1
0	461	133.546713742552	2
0	465	135.012627968109	1
0	467	135.012627968109	2
0	473	138.632699606355	1
0	475	138.632699606355	2
0	477	138.649056398266	1
0	479	138.649056398266	2
0	481	139.471208763931	1
0	483	139.471208763931	2
0	487	141.180934024379	1
0	489	141.180934024379	2
0	491	141.470818510205	1
0	493	141.470818510205	2
0	495	141.788313503668	1
0	497	141.788313503668	2
0	499	141.900107478764	1
0	501	141.900107478764	2
0	513	143.527463628466	1
0	515	143.527463628466	2
0	519	150.117443405773	1
0	521	150.117443405773	2
0	527	152.638762463718	1
0	529	152.638762463718	2
0	533	154.318573038773	1
0	535	154.318573038773	2
0	539	157.420197963205	1
0	541	157.420197963205	2
0	545	167.055823038679	1
0	547	167.055823038679	2
0	549	167.136694945993	1
0	551	167.136694945993	2
0	555	167.797700448122	1
0	557	167.797700448122	2
0	563	170.205518695948	1
0	565	170.205518695948	2
0	567	170.5287672575	1
0	569	170.5287672575	2
0	575	173.876532664404	1
0	577	173.876532664404	2
0	579	173.937191588991	1
0	581	173.937191588991	2
0	587	177.559047844865	1
0	589	177.559047844865	2
0	591	178.434375862583	1
0	593	178.434375862583	2
0	595	180.229121500588	1
0	597	180.229121500588	2
0	599	180.24374635607	1
0	601	180.24374635607	2
0	611	183.580154410812	1
0	613	183.580154410812	2
0	615	189.186111665999	1
0	617	189.186111665999	2
0	619	189.532498323466	1
0	621	189.532498323466	2
0	629	197.411608112193	1
0	631	197.411608112193	2
0	635	202.022778836306	1
0	637	202.022778836306	2
0	639	202.16565101559	1
0	641	202.16565101559	2
0	645	204.795074267249	1
0	647	204.795074267249	2
0	651	206.010157689052	1
0	653	206.010157689052	2
0	659	208.867595490605	1
0	661	208.867595490605	2
0	665	211.45835155565	1
0	667	211.45835155565	2
0	669	214.765237268961	1
0	671	214.765237268961	2
0	673	215.67033133092	1
0	675	215.67033133092	2
0	681	220.770705013419	1
0	683	220.770705013419	2
0	685	222.343927525799	1
0	687	222.343927525799	2
0	689	222.429053766941	1
0	691	222.429053766941	2
0	699	226.713025033317	1
0	701	226.713025033317	2
0	703	228.392060853152	1
0	705	228.392060853152	2
0	707	228.420655603653	1
0	709	228.420655603653	2
0	715	230.110520908872	1
0	717	230.110520908872	2
0	725	233.838450866627	1
0	727	233.838450866627	2
0	729	233.997254690874	1
0	731	233.997254690874	2
0	733	237.004296187026	1
0	735	237.004296187026	2
0	743	239.835190226363	1
0	745	239.835190226363	2
0	749	243.177509795088	1
0	751	243.177509795088	2
0	753	245.815267944701	1
0	755	245.815267944701	2
0	757	245.884127349664	1
0	759	245.884127349664	2
0	763	249.023125395856	1
0	765	249.023125395856	2
0	769	250.736701125847	1
0	771	250.736701125847	2
0	775	252.05863518886	1
0	777	252.05863518886	2
0	779	252.307296522543	1
0	781	252.307296522543	2
0	789	258.385936055694	1
0	791	258.385936055694	2
0	793	259.082214928333	1
0	795	259.082214928333	2
0	797	259.452312549151	1
0	799	259.452312549151	2
0	801	260.060144304938	1
0	803	260.060144304938	2
0	805	260.773888096035	1
0	807	260.773888096035	2
0	809	260.920627714511	1
0	811	260.920627714511	2
0	815	261.586615592848	1
0	817	261.586615592848	2
0	833	268.091059652149	1
0	835	268.091059652149	2
0	839	275.79567573698	1
0	841	275.79567573698	2
0	843	276.418689736114	1
0	845	276.418689736114	2
0	847	276.48532384039	1
0	849	276.48532384039	2
0	857	283.86679625533	1
0	859	283.86679625533	2
0	861	286.185478910212	1
0	863	286.185478910212	2
0	867	288.140302774089	1
0	869	288.140302774089	2
0	871	288.460522431407	1
0	873	288.460522431407	2
0	879	289.506314850195	1
0	881	289.506314850195	2
0	885	290.655523707812	1
0	887	290.655523707812	2
0	891	291.479293524211	1
0	893	291.479293524211	2
0	895	291.938197571383	1
0	897	291.938197571383	2
0	899	293.159745337177	1
0	901	293.159745337177	2
0	909	296.248094686777	1
0	911	296.248094686777	2
0	915	298.967753965805	1
0	917	298.967753965805	2
0	923	300.766588852384	1
0	925	300.766588852384	2
0	927	302.183420931332	1
0	929	302.183420931332	2
0	933	305.344039123579	1
0	935	305.344039123579	2
0	937	306.676551610869	1
0	939	306.676551610869	2
0	941	306.68184600067	1
0	943	306.68184600067	2
0	947	307.833012788655	1
0	949	307.833012788655	2
0	951	307.878077406577	1
0	953	307.878077406577	2
0	959	309.330730217685	1
0	961	309.330730217685	2
0	967	314.348968214152	1
0	969	314.348968214152	2
0	973	315.959930269825	1
0	975	315.959930269825	2
0	979	316.837874906653	1
0	981	316.837874906653	2
0	989	323.097147587079	1
0	991	323.097147587079	2
0	993	324.639606002868	1
0	995	324.639606002868	2
0	999	325.095182277047	1
0	1001	325.095182277047	2
0	1003	325.573694084897	1
0	1005	325.573694084897	2
0	1009	327.006211908933	1
0	1011	327.006211908933	2
0	1015	327.306272465897	1
0	1017	327.306272465897	2
0	1023	329.965163741785	1
0	1025	329.965163741785	2
0	1031	336.164526408336	1
0	1033	336.164526408336	2
0	1037	338.791579762255	1
0	1039	338.791579762255	2
0	1041	338.833997193477	1
0	1043	338.833997193477	2
0	1049	344.055401395069	1
0	1051	344.055401395069	2
0	1053	344.776899855766	1
0	1055	344.776899855766	2
0	1061	348.129248534937	1
0	1063	348.129248534937	2
0	1065	348.913387675127	1
0	1067	348.913387675127	2
0	1069	350.090367136922	1
0	1071	350.090367136922	2
0	1079	354.958771103495	1
0	1081	354.958771103495	2
0	1085	358.52036460877	1
0	1087	358.52036460877	2
0	1091	361.582471180615	1
0	1093	361.582471180615	2
0	1095	362.43179118938	1
0	1097	362.43179118938	2
0	1101	364.590198961734	1
0	1103	364.590198961734	2
0	1105	364.953499486077	1
0	1107	364.953499486077	2
0	1109	365.043956526398	1
0	1111	365.043956526398	2
0	1119	370.662286082611	1
0	1121	370.662286082611	2
0	1127	376.358470881473	1
0	1129	376.358470881473	2
0	1131	377.530804614222	1
0	1133	377.530804614222	2
0	1135	377.568906040897	1
0	1137	377.568906040897	2
0	1139	378.399501892824	1
0	1141	378.399501892824	2
0	1143	379.109544066303	1
0	1145	379.109544066303	2
0	1147	381.023695144016	1
0	1149	381.023695144016	2
0	1163	387.667602246801	1
0	1165	387.667602246801	2
0	1167	388.511627416409	1
0	1169	388.511627416409	2
0	1173	390.830298710825	1
0	1175	390.830298710825	2
0	1177	391.204224228663	1
0	1179	391.204224228663	2
0	1185	394.384510662751	1
0	1187	394.384510662751	2
0	1193	402.653484063345	1
0	1195	402.653484063345	2
0	1199	403.392778128507	1
0	1201	403.392778128507	2
0	1203	404.745327375581	1
0	1205	404.745327375581	2
0	1209	407.171170964891	1
0	1211	407.171170964891	2
0	1213	407.232136445386	1
0	1215	407.232136445386	2
0	1221	408.841846952814	1
0	1223	408.841846952814	2
0	1225	410.044708864229	1
0	1227	410.044708864229	2
0	1233	414.080513327655	1
0	1235	414.080513327655	2
0	1237	414.081196650508	1
0	1239	414.081196650508	2
0	1241	414.248911435831	1
0	1243	414.248911435831	2
0	1251	415.704012891652	1
0	1253	415.704012891652	2
0	1255	416.333713912509	1
0	1257	416.333713912509	2
0	1261	417.667704881729	1
0	1263	417.667704881729	2
0	1265	418.044410098094	1
0	1267	418.044410098094	2
0	1275	423.138938200824	1
0	1277	423.138938200824	2
0	1281	424.966189486612	1
0	1283	424.966189486612	2
0	1289	427.825277504694	1
0	1291	427.825277504694	2
0	1295	428.181940145561	1
0	1297	428.181940145561	2
0	1299	428.545425077706	1
0	1301	428.545425077706	2
0	1307	430.261325936482	1
0	1309	430.261325936482	2
0	1311	431.087164143595	1
0	1313	431.087164143595	2
0	1319	434.361358912291	1
0	1321	434.361358912291	2
0	1325	436.80770757634	1
0	1327	436.80770757634	2
0	1329	437.270006248958	1
0	1331	437.270006248958	2
0	1337	439.862279251721	1
0	1339	439.862279251721	2
0	1343	440.8895192772	1
0	1345	440.8895192772	2
0	1347	441.036867106311	1
0	1349	441.036867106311	2
0	1353	444.531289264303	1
0	1355	444.531289264303	2
0	1357	444.773716155948	1
0	1359	444.773716155948	2
0	1365	445.430128061414	1
0	1367	445.430128061414	2
0	1369	446.005990076961	1
0	1371	446.005990076961	2
0	1373	446.215144389187	1
0	1375	446.215144389187	2
0	1381	449.774133138642	1
0	1383	449.774133138642	2
0	1387	450.894228388336	1
0	1389	450.894228388336	2
0	1395	456.273914799897	1
0	1397	456.273914799897	2
0	1399	456.76885247577	1
0	1401	456.76885247577	2
0	1407	458.875689323592	1
0	1409	458.875689323592	2
0	1411	459.297884423375	1
0	1413	459.297884423375	2
0	1417	459.755455738464	1
0	1419	459.755455738464	2
0	1427	466.950752417508	1
0	1429	466.950752417508	2
0	1433	467.322013501538	1
0	1435	467.322013501538	2
0	1439	469.610559282885	1
0	1441	469.610559282885	2
0	1445	472.602076242295	1
0	1447	472.602076242295	2
0	1451	474.821801592645	1
0	1453	474.821801592645	2
0	1455	475.437785543715	1
0	1457	475.437785543715	2
0	1459	476.270855767376	1
0	1461	476.270855767376	2
0	1467	479.778203379243	1
0	1469	479.778203379243	2
0	1471	479.890685364112	1
0	1473	479.890685364112	2
0	1475	480.942718190152	1
0	1477	480.942718190152	2
0	1485	483.019978889357	1
0	1487	483.019978889357	2
0	1493	489.79436177173	1
0	1495	489.79436177173	2
0	1497	490.205646986843	1
0	1499	490.205646986843	2
0	1503	493.624961647523	1
0	1505	493.624961647523	2
0	1507	493.999488455483	1
0	1509	493.999488455483	2
0	1517	495.695364411576	1
0	1519	495.695364411576	2
0	1521	496.085319107308	1
0	1523	496.085319107308	2
0	1525	496.570345780961	1
0	1527	496.570345780961	2
0	1533	498.120569402576	1
0	1535	498.120569402576	2
0	1537	498.382773835609	1
0	1539	498.382773835609	2
0	1545	500.766234968458	1
0	1547	500.766234968458	2
0	1553	503.021923652287	1
0	1555	503.021923652287	2
0	1557	503.900913042366	1
0	1559	503.900913042366	2
0	1563	506.150997592439	1
0	1565	506.150997592439	2
0	1567	506.343682100694	1
0	1569	506.343682100694	2
0	1571	506.614457341771	1
0	1573	506.614457341771	2
0	1583	514.954030635179	1
0	1585	514.954030635179	2
0	1587	516.455655056164	1
0	1589	516.455655056164	2
0	1591	517.084067324721	1
0	1593	517.084067324721	2
0	1599	519.495178397615	1
0	1601	519.495178397615	2
0	1607	524.000542489437	1
0	1609	524.000542489437	2
0	1613	527.251111563873	1
0	1615	527.251111563873	2
0	1617	527.530057314447	1
0	1619	527.530057314447	2
0	1623	528.284894753552	1
0	1625	528.284894753552	2
0	1631	531.545398570766	1
0	1633	531.545398570766	2
0	1637	536.625572380315	1
0	1639	536.625572380315	2
0	1643	539.398827114664	1
0	1645	539.398827114664	2
0	1647	539.709125307129	1
0	1649	539.709125307129	2
0	1653	544.790635302833	1
0	1655	544.790635302833	2
0	1657	544.971257909155	1
0	1659	544.971257909155	2
0	1665	548.369383844431	1
0	1667	548.369383844431	2
0	1671	553.406502502997	1
0	1673	553.406502502997	2
0	1675	555.326577257413	1
0	1677	555.326577257413	2
0	1681	557.155247518687	1
0	1683	557.155247518687	2
0	1687	557.898675704211	1
0	1689	557.898675704211	2
0	1691	557.94935762445	1
0	1693	557.94935762445	2
0	1699	558.283274363783	1
0	1701	558.283274363783	2
0	1707	559.867517280337	1
0	1709	559.867517280337	2
0	1715	562.575758791863	1
0	1717	562.575758791863	2
0	1719	563.83670165472	1
0	1721	563.83670165472	2
0	1725	563.900938190334	1
0	1727	563.900938190334	2
0	1733	567.39241987245	1
0	1735	567.39241987245	2
0	1737	568.519794683839	1
0	1739	568.519794683839	2
0	1741	569.339523410044	1
0	1743	569.339523410044	2
0	1751	576.447073814735	1
0	1753	576.447073814735	2
0	1755	576.510704025017	1
0	1757	576.510704025017	2
0	1759	576.62475287743	1
0	1761	576.62475287743	2
0	1769	583.216532775114	1
0	1771	583.216532775114	2
0	1775	586.961056670906	1
0	1777	586.961056670906	2
0	1779	588.752227861235	1
0	1781	588.752227861235	2
0	1785	589.953142785055	1
0	1787	589.953142785055	2
0	1789	591.544726045652	1
0	1791	591.544726045652	2
0	1793	592.906262780184	1
0	1795	592.906262780184	2
0	1805	598.635191146135	1
0	1807	598.635191146135	2
0	1809	599.884310248038	1
0	1811	599.884310248038	2
0	1815	600.213483243553	1
0	1817	600.213483243553	2
0	1819	600.358646766923	1
0	1821	600.358646766923	2
0	1825	601.238145390084	1
0	1827	601.238145390084	2
0	1831	604.153845422903	1
0	1833	604.153845422903	2
0	1837	604.992412558681	1
0	1839	604.992412558681	2
0	1843	605.678411751983	1
0	1845	605.678411751983	2
0	1847	605.883479010075	1
0	1849	605.883479010075	2
0	1853	606.511173118896	1
0	1855	606.511173118896	2
0	1861	608.476903860637	1
0	1863	608.476903860637	2
0	1867	610.736756391845	1
0	1869	610.736756391845	2
0	1875	616.13675194576	1
0	1877	616.13675194576	2
0	1881	618.383479300007	1
0	1883	618.383479300007	2
0	1887	621.628982644077	1
0	1889	621.628982644077	2
0	1893	622.835795348548	1
0	1895	622.835795348548	2
0	1899	624.364721982111	1
0	1901	624.364721982111	2
0	1903	624.478733235247	1
0	1905	624.478733235247	2
0	1907	624.773496986122	1
0	1909	624.773496986122	2
0	1915	626.69469898382	1
0	1917	626.69469898382	2
0	1919	628.444771047393	1
0	1921	628.444771047393	2
0	1923	628.557544313171	1
0	1925	628.557544313171	2
0	1931	628.917002777587	1
0	1933	628.917002777587	2
0	1935	628.944655864019	1
0	1937	628.944655864019	2
0	1939	629.078686441167	1
0	1941	629.078686441167	2
0	1943	629.431550924915	1
0	1945	629.431550924915	2
0	1951	631.560629628132	1
0	1953	631.560629628132	2
0	1967	640.506200395604	1
0	1969	640.506200395604	2
0	1973	642.211637641487	1
0	1975	642.211637641487	2
0	1977	642.412776140988	1
0	1979	642.412776140988	2
0	1983	643.26398441662	1
0	1985	643.26398441662	2
0	1991	644.644248368793	1
0	1993	644.644248368793	2
0	1995	646.889052718479	1
0	1997	646.889052718479	2
0	2001	648.228708999537	1
0	2003	648.228708999537	2
0	2009	651.977392470326	1
0	2011	651.977392470326	2
0	2015	659.146038678166	1
0	2017	659.146038678166	2
0	2021	659.630993375764	1
0	2023	659.630993375764	2
0	2027	660.851604974442	1
0	2029	660.851604974442	2
0	2031	661.8618469335	1
0	2033	661.8618469335	2
0	2039	662.676801873083	1
0	2041	662.676801873083	2
0	2045	665.149796996429	1
0	2047	665.149796996429	2
0	2051	669.766972292073	1
0	2053	669.766972292073	2
0	2055	669.907098713902	1
0	2057	669.907098713902	2
0	2061	670.501946643758	1
0	2063	670.501946643758	2
0	2067	670.720396176141	1
0	2069	670.720396176141	2
0	2071	671.110079167857	1
0	2073	671.110079167857	2
0	2079	675.886955637557	1
0	2081	675.886955637557	2
0	2085	679.604229600297	1
0	2087	679.604229600297	2
0	2089	679.902067963567	1
0	2091	679.902067963567	2
0	2093	680.828596785674	1
0	2095	680.828596785674	2
0	2097	681.134599083733	1
0	2099	681.134599083733	2
0	2101	681.724479509064	1
0	2103	681.724479509064	2
0	2113	684.428156159371	1
0	2115	684.428156159371	2
0	2119	686.139475585127	1
0	2121	686.139475585127	2
0	2125	687.878903282689	1
0	2127	687.878903282689	2
0	2129	688.442316546112	1
0	2131	688.442316546112	2
0	2135	689.367088366567	1
0	2137	689.367088366567	2
0	2141	690.038855858957	1
0	2143	690.038855858957	2
0	2145	690.133842437316	1
0	2147	690.133842437316	2
0	2157	694.554120700272	1
0	2159	694.554120700272	2
0	2163	695.736225215016	1
0	2165	695.736225215016	2
0	2167	695.773994225383	1
0	2169	695.773994225383	2
0	2171	697.136770146122	1
0	2173	697.136770146122	2
0	2175	698.279350446453	1
0	2177	698.279350446453	2
0	2179	698.805675754157	1
0	2181	698.805675754157	2
0	2189	700.287046849048	1
0	2191	700.287046849048	2
0	2199	709.368334472912	1
0	2201	709.368334472912	2
0	2205	711.632193493456	1
0	2207	711.632193493456	2
0	2213	718.459012844235	1
0	2215	718.459012844235	2
0	2219	719.024795794799	1
0	2221	719.024795794799	2
0	2223	721.435158812066	1
0	2225	721.435158812066	2
0	2231	724.010194290719	1
0	2233	724.010194290719	2
0	2237	725.429592679265	1
0	2239	725.429592679265	2
0	2241	725.972234101832	1
0	2243	725.972234101832	2
0	2245	727.381101634717	1
0	2247	727.381101634717	2
0	2255	731.701290549761	1
0	2257	731.701290549761	2
0	2259	736.596754449707	1
0	2261	736.596754449707	2
0	2263	737.116009025749	1
0	2265	737.116009025749	2
0	2267	738.600036399684	1
0	2269	738.600036399684	2
0	2271	738.845233613467	1
0	2273	738.845233613467	2
0	2275	739.034299712705	1
0	2277	739.034299712705	2
0	2279	739.699104409974	1
0	2281	739.699104409974	2
0	2297	746.62666418282	1
0	2299	746.62666418282	2
0	2301	746.72194625686	1
0	2303	746.72194625686	2
0	2305	747.753845485851	1
0	2307	747.753845485851	2
0	2315	751.72407432796	1
0	2317	751.72407432796	2
0	2319	752.08950231117	1
0	2321	752.08950231117	2
0	2327	757.733281442338	1
0	2329	757.733281442338	2
0	2331	761.609246371664	1
0	2333	761.609246371664	2
0	2339	769.913131069331	1
0	2341	769.913131069331	2
0	2343	770.336233161439	1
0	2345	770.336233161439	2
0	2351	776.190787930036	1
0	2353	776.190787930036	2
0	2357	779.350017719487	1
0	2359	779.350017719487	2
0	2361	780.224021938785	1
0	2363	780.224021938785	2
0	2365	781.584014077062	1
0	2367	781.584014077062	2
0	2371	782.089415303213	1
0	2373	782.089415303213	2
0	2377	785.123704423583	1
0	2379	785.123704423583	2
0	2385	785.957303953659	1
0	2387	785.957303953659	2
0	2389	786.460956799717	1
0	2391	786.460956799717	2
0	2397	789.05337671104	1
0	2399	789.05337671104	2
0	2401	789.494876291117	1
0	2403	789.494876291117	2
0	2407	791.617173186267	1
0	2409	791.617173186267	2
0	2413	792.606945819004	1
0	2415	792.606945819004	2
0	2421	796.921189157434	1
0	2423	796.921189157434	2
0	2429	801.999893872141	1
0	2431	801.999893872141	2
0	2435	803.492426243355	1
0	2437	803.492426243355	2
0	2441	805.32609964837	1
0	2443	805.32609964837	2
0	2447	815.457401481428	1
0	2449	815.457401481428	2
0	2453	816.94055935625	1
0	2455	816.94055935625	2
0	2457	817.162471434052	1
0	2459	817.162471434052	2
0	2461	819.758508248839	1
0	2463	819.758508248839	2
0	2471	825.700623505784	1
0	2473	825.700623505784	2
0	2475	826.120188052097	1
0	2477	826.120188052097	2
0	2481	827.964955351009	1
0	2483	827.964955351009	2
0	2485	827.973221531185	1
0	2487	827.973221531185	2
0	2491	830.69456327461	1
0	2493	830.69456327461	2
0	2497	831.186978472255	1
0	2499	831.186978472255	2
0	2501	831.222141681308	1
0	2503	831.222141681308	2
0	2511	833.909487606147	1
0	2513	833.909487606147	2
0	2517	838.652622561968	1
0	2519	838.652622561968	2
0	2523	840.515215850783	1
0	2525	840.515215850783	2
0	2529	840.865842516282	1
0	2531	840.865842516282	2
0	2537	842.40008591989	1
0	2539	842.40008591989	2
0	2543	848.658226766243	1
0	2545	848.658226766243	2
0	2549	849.450949928241	1
0	2551	849.450949928241	2
0	2553	851.494980729285	1
0	2555	851.494980729285	2
0	2561	853.097571882819	1
0	2563	853.097571882819	2
0	2567	860.477486406888	1
0	2569	860.477486406888	2
0	2571	860.736308143628	1
0	2573	860.736308143628	2
0	2575	862.055978125239	1
0	2577	862.055978125239	2
0	2579	863.690833797579	1
0	2581	863.690833797579	2
0	2585	864.23046070019	1
0	2587	864.23046070019	2
0	2595	866.70541068776	1
0	2597	866.70541068776	2
0	2603	882.122243240087	1
0	2605	882.122243240087	2
0	2609	887.305376762561	1
0	2611	887.305376762561	2
0	2613	887.318487005463	1
0	2615	887.318487005463	2
0	2617	888.453733800944	1
0	2619	888.453733800944	2
0	2621	888.466894010893	1
0	2623	888.466894010893	2
0	2633	893.704219420455	1
0	2635	893.704219420455	2
0	2637	896.367523930463	1
0	2639	896.367523930463	2
0	2643	896.816074917742	1
0	2645	896.816074917742	2
0	2647	897.452360788031	1
0	2649	897.452360788031	2
0	2655	902.304848964006	1
0	2657	902.304848964006	2
0	2659	904.353132006498	1
0	2661	904.353132006498	2
0	2663	905.116697574703	1
0	2665	905.116697574703	2
0	2675	908.774702586037	1
0	2677	908.774702586037	2
0	2679	909.446061059868	1
0	2681	909.446061059868	2
0	2687	912.255377080908	1
0	2689	912.255377080908	2
0	2693	915.429524449073	1
0	2695	915.429524449073	2
0	2699	919.073292324892	1
0	2701	919.073292324892	2
0	2703	919.106848218994	1
0	2705	919.106848218994	2
0	2707	919.744642346137	1
0	2709	919.744642346137	2
0	2711	920.812982295607	1
0	2713	920.812982295607	2
0	2715	920.883743688126	1
0	2717	920.883743688126	2
0	2727	923.765736309887	1
0	2729	923.765736309887	2
0	2731	924.405747370152	1
0	2733	924.405747370152	2
0	2737	926.1239637061	1
0	2739	926.1239637061	2
0	2745	927.973964305908	1
0	2747	927.973964305908	2
0	2749	930.057516161847	1
0	2751	930.057516161847	2
0	2753	931.048476269743	1
0	2755	931.048476269743	2
0	2761	933.048752657869	1
0	2763	933.048752657869	2
0	2765	933.921529292246	1
0	2767	933.921529292246	2
0	2777	950.617480102515	1
0	2779	950.617480102515	2
0	2781	951.189355677084	1
0	2783	951.189355677084	2
0	2787	960.402353897872	1
0	2789	960.402353897872	2
0	2795	963.597259994251	1
0	2797	963.597259994251	2
0	2799	964.646545295059	1
0	2801	964.646545295059	2
0	2803	965.089358667775	1
0	2805	965.089358667775	2
0	2807	965.367149237595	1
0	2809	965.367149237595	2
0	2815	968.320408780807	1
0	2817	968.320408780807	2
0	2823	969.740167533613	1
0	2825	969.740167533613	2
0	2831	972.789393230969	1
0	2833	972.789393230969	2
0	2835	973.25341694568	1
0	2837	973.25341694568	2
0	2839	973.346903215258	1
0	2841	973.346903215258	2
0	2845	973.567868479448	1
0	2847	973.567868479448	2
0	2851	975.289619335361	1
0	2853	975.289619335361	2
0	2859	979.611353347465	1
0	2861	979.611353347465	2
0	2863	980.819492313152	1
0	2865	980.819492313152	2
0	2869	981.02874198503	1
0	2871	981.02874198503	2
0	2873	981.348109974453	1
0	2875	981.348109974453	2
0	2877	981.936798718786	1
0	2879	981.936798718786	2
0	2885	982.545695001534	1
0	2887	982.545695001534	2
0	2889	982.598695389589	1
0	2891	982.598695389589	2
0	2895	983.052919802784	1
0	2897	983.052919802784	2
0	2907	985.635959607771	1
0	2909	985.635959607771	2
0	2913	987.916863444483	1
0	2915	987.916863444483	2
0	2917	988.159366066507	1
0	2919	988.159366066507	2
0	2927	990.913616619109	1
0	2929	990.913616619109	2
0	2931	992.572620411551	1
0	2933	992.572620411551	2
0	2935	992.980963435527	1
0	2937	992.980963435527	2
0	2939	993.081711449334	1
0	2941	993.081711449334	2
0	2947	996.12829894347	1
0	2949	996.12829894347	2
0	2951	997.109452031765	1
0	2953	997.109452031765	2
1	327	100.092541246148	1.689326140778
1	335	102.332505169049	3.273037812476
1	339	102.880347981727	2.787806735579
1	343	103.271065172654	0.938560003605
1	349	103.545814183929	0.665466202202
1	353	103.691139575999	0.420074403345
1	363	105.709996690643	2.164182506714
1	371	109.792269981798	6.101130405799
1	375	110.666944604094	4.956947913451
1	379	110.737747524277	0.945477542479
1	385	113.758845452217	3.091900848123
1	393	115.054026768653	4.316279244376
1	397	115.201792881447	1.44294742923
1	407	119.873381699298	4.819354930645
1	413	123.135134211308	7.933341329861
1	417	123.144282795442	3.270901096144
1	421	123.635259460602	0.500125249294
1	431	126.250707013112	3.10642421767
1	437	127.021312335186	3.386052874584
1	443	128.613305769595	2.362598756483
1	447	128.688236291918	1.666923956732
1	453	132.087311151519	3.474005381924
1	459	133.546713742552	4.858477450634
1	465	135.012627968109	2.92531681659
1	473	138.632699606355	5.085985863803
1	477	138.649056398266	3.636428430157
1	481	139.471208763931	0.838509157576
1	487	141.180934024379	2.531877626113
1	491	141.470818510205	1.999609746274
1	495	141.788313503668	0.607379479289
1	499	141.900107478764	0.429288968559
1	513	143.527463628466	1.739150124798
1	519	150.117443405773	8.217335927009
1	527	152.638762463718	9.111298835252
1	533	154.318573038773	4.201129633
1	539	157.420197963205	4.781435499487
1	545	167.055823038679	12.737249999906
1	549	167.136694945993	9.716496982788
1	555	167.797700448122	0.741877409443
1	563	170.205518695948	3.068823749955
1	567	170.5287672575	2.731066809378
1	575	173.876532664404	3.671013968456
1	579	173.937191588991	3.408424331491
1	587	177.559047844865	3.682515180461
1	591	178.434375862583	4.497184273592
1	595	180.229121500588	2.670073655723
1	599	180.24374635607	1.809370493487
1	611	183.580154410812	3.351032910224
1	615	189.186111665999	8.942365309929
1	619	189.532498323466	5.952343912654
1	629	197.411608112193	8.225496446194
1	635	202.022778836306	12.49028051284
1	639	202.16565101559	4.754042903397
1	645	204.795074267249	2.772295430943
1	651	206.010157689052	3.844506673462
1	659	208.867595490605	4.072521223356
1	665	211.45835155565	5.448193866598
1	669	214.765237268961	5.897641778356
1	673	215.67033133092	4.21197977527
1	681	220.770705013419	6.005467744458
1	685	222.343927525799	6.673596194879
1	689	222.429053766941	1.658348753522
1	699	226.713025033317	4.369097507518
1	703	228.392060853152	5.963007086211
1	707	228.420655603653	1.707630570336
1	715	230.110520908872	1.71846005572
1	725	233.838450866627	5.417795262974
1	729	233.997254690874	3.886733782002
1	733	237.004296187026	3.165845320399
1	743	239.835190226363	5.837935535489
1	749	243.177509795088	6.173213608062
1	753	245.815267944701	5.980077718338
1	757	245.884127349664	2.706617554576
1	763	249.023125395856	3.207857451155
1	769	250.736701125847	4.852573776183
1	775	252.05863518886	3.035509793004
1	779	252.307296522543	1.570595396696
1	789	258.385936055694	6.327300866834
1	793	259.082214928333	6.77491840579
1	797	259.452312549151	1.066376493457
1	801	260.060144304938	0.977929376605
1	805	260.773888096035	1.321575546884
1	809	260.920627714511	0.860483409573
1	815	261.586615592848	0.812727496813
1	833	268.091059652149	7.170431937638
1	839	275.79567573698	14.209060144132
1	843	276.418689736114	8.327630083965
1	847	276.48532384039	0.68964810341
1	857	283.86679625533	7.448106519216
1	861	286.185478910212	9.700155069822
1	867	288.140302774089	4.273506518759
1	871	288.460522431407	2.275043521195
1	879	289.506314850195	1.366012076106
1	885	290.655523707812	2.195001276405
1	891	291.479293524211	1.972978674016
1	895	291.938197571383	1.282673863571
1	899	293.159745337177	1.680451812966
1	909	296.248094686777	4.309897115394
1	915	298.967753965805	5.808008628628
1	923	300.766588852384	4.518494165607
1	927	302.183420931332	3.215666965527
1	933	305.344039123579	4.577450271195
1	937	306.676551610869	4.493130679537
1	941	306.68184600067	1.337806877091
1	947	307.833012788655	1.156461177786
1	951	307.878077406577	1.196231405907
1	959	309.330730217685	1.49771742903
1	967	314.348968214152	6.470890807575
1	973	315.959930269825	6.62920005214
1	979	316.837874906653	2.488906692501
1	989	323.097147587079	7.137217317254
1	993	324.639606002868	7.801731096215
1	999	325.095182277047	1.998034689968
1	1003	325.573694084897	0.934088082029
1	1009	327.006211908933	1.911029631886
1	1015	327.306272465897	1.732578381
1	1023	329.965163741785	2.958951832852
1	1031	336.164526408336	8.858253942439
1	1037	338.791579762255	8.82641602047
1	1041	338.833997193477	2.669470785141
1	1049	344.055401395069	5.263821632814
1	1053	344.776899855766	5.942902662289
1	1061	348.129248534937	4.073847139868
1	1065	348.913387675127	4.136487819361
1	1069	350.090367136922	1.961118601985
1	1079	354.958771103495	6.045383428368
1	1085	358.52036460877	8.429997471848
1	1091	361.582471180615	6.62370007712
1	1095	362.43179118938	3.91142658061
1	1101	364.590198961734	3.007727781119
1	1105	364.953499486077	2.521708296697
1	1109	365.043956526398	0.453757564664
1	1119	370.662286082611	5.708786596534
1	1127	376.358470881473	11.314514355075
1	1131	377.530804614222	6.868518531611
1	1135	377.568906040897	1.210435159424
1	1139	378.399501892824	0.868697278602
1	1143	379.109544066303	1.540638025406
1	1147	381.023695144016	2.624193251192
1	1163	387.667602246801	8.558058180498
1	1167	388.511627416409	7.487932272393
1	1173	390.830298710825	3.162696464024
1	1177	391.204224228663	2.692596812254
1	1185	394.384510662751	3.554211951926
1	1193	402.653484063345	11.449259834682
1	1199	403.392778128507	9.008267465756
1	1203	404.745327375581	2.091843312236
1	1209	407.171170964891	3.778392836384
1	1213	407.232136445386	2.486809069805
1	1221	408.841846952814	1.670675987923
1	1225	410.044708864229	2.812572418843