version 3
run General-5-20221103-10:28:21-6760
attr configname General
attr datetime 20221103-10:28:21
attr datetimef 20221103-102821
attr experiment General
attr inifile block.ini
attr iterationvars "$0=2, $1=20"
attr iterationvarsd 2/20
attr iterationvarsf 2,20-
attr measurement "$0=2, $1=20"
attr network Block
attr processid 6760
attr repetition 0
attr replication #0
attr resultdir results
attr runnumber 5
attr seedset 5
config network Block
config repeat 5
config sim-time-limit 1000s
config warmup-period 100s
config **.alloca.resourceModuleName "\"risorse\""
config **.dealloca.resourceModuleName "\"risorse\""
config **.is.delay exponential(3s)
config **.servente.serviceTime exponential(2s)
config **.dealloca.resourceAmount 2
config **.alloca.resourceAmount 2
config **.risorse.amount 6
config **.sorgente.numJobs (20)
config **.result-recording-modes all

vector 0 Block.is delayedJobs:vector ETV
attr interpolationmode sample-hold
attr recordingmode vector
attr title "number of delayed jobs"
vector 1 Block.alloca queueLength:vector ETV
attr interpolationmode sample-hold
attr recordingmode vector
attr title "queue length"
vector 2 Block.servente queueLength:vector ETV
attr interpolationmode sample-hold
attr recordingmode vector
attr title "queue length"
vector 3 Block.servente queueingTime:vector ETV
attr interpolationmode none
attr recordingmode vector
attr title "queueing time at dequeue"
attr unit s
vector 4 Block.alloca queueingTime:vector ETV
attr interpolationmode none
attr recordingmode vector
attr title "queueing time at dequeue"
attr unit s
vector 5 Block.risorse amount:vector ETV
attr interpolationmode sample-hold
attr recordingmode vector
attr title "available resource"
0	355	101.97541626389	1
0	360	103.12979833188	2
0	364	104.077097703732	3
0	368	105.045798162255	4
0	372	105.764876140403	5
0	373	106.156301231176	4
0	375	106.163565981874	3
0	380	106.199027592788	4
0	384	108.865025017631	5
0	385	109.089480529511	4
0	387	109.161844310248	3
0	389	111.424692370621	2
0	391	112.884670965221	1
0	393	113.077574984119	0
0	398	114.107909400339	1
0	399	115.451689190123	0
0	404	116.413409198613	1
0	405	116.521873638374	0
0	410	117.517418832603	1
0	414	119.188460219265	2
0	418	119.672550404898	3
0	419	119.83004131326	2
0	421	119.888761986402	1
0	426	120.014200859969	2
0	427	120.641433677385	1
0	432	123.627713584097	2
0	433	123.95946571034	1
0	435	124.992362439005	0
0	440	127.357086688904	1
0	441	128.197382865114	0
0	446	129.4209504434	1
0	450	129.70924725753	2
0	454	130.098171031117	3
0	458	130.866169128506	4
0	459	131.01128056346	3
0	461	132.90635889956	2
0	463	133.153786667646	1
0	465	134.176466715635	0
0	470	137.115511033619	1
0	474	137.62939051904	2
0	475	139.743115625533	1
0	480	142.056493465375	2
0	481	146.034793143614	1
0	486	147.45055761537	2
0	490	147.628449627402	3
0	491	147.805869294133	2
0	493	150.679166593125	1
0	498	150.964538035945	2
0	499	152.238610950011	1
0	501	153.193601225694	0
0	506	161.345703366496	1
0	507	161.664543760553	0
0	512	162.215665693894	1
0	516	163.539196439425	2
0	517	163.666314078061	1
0	519	165.681419101458	0
0	524	166.2497966508	1
0	528	167.182694337701	2
0	532	167.254275155257	3
0	533	167.291614800818	2
0	538	167.585589008183	3
0	542	168.361910941669	4
0	543	168.576012333213	3
0	548	168.611921683564	4
0	549	168.715258830294	3
0	554	169.503511350292	4
0	555	170.564133923514	3
0	560	171.895509716226	4
0	561	173.477653285795	3
0	563	174.064708486335	2
0	568	175.038265846626	3
0	569	175.194471949678	2
0	571	175.990317965455	1
0	576	176.22006128893	2
0	577	176.813330912115	1
0	579	181.055529829952	0
0	584	183.283666151478	1
0	585	183.345472613193	0
0	590	184.713280378115	1
0	594	186.04472949624	2
0	598	186.154513700677	3
0	602	186.720122696119	4
0	603	187.26351609899	3
0	605	187.634671335953	2
0	610	189.540694657126	3
0	611	189.70711259187	2
0	616	191.515713662866	3
0	617	191.569533378447	2
0	619	192.149646808822	1
0	624	194.272568791689	2
0	625	196.079302586013	1
0	627	198.781113233786	0
0	632	203.068276871662	1
0	636	204.851164629284	2
0	637	206.061782188664	1
0	642	206.263126270034	2
0	643	206.709761231528	1
0	648	206.75309414073	2
0	649	207.601908815737	1
0	654	208.46007100686	2
0	658	211.505810676676	3
0	659	213.076964458408	2
0	661	214.385939339419	1
0	666	215.052261427143	2
0	670	215.603954656667	3
0	671	216.806521553007	2
0	673	217.673411534597	1
0	678	219.465496615525	2
0	679	219.724584857989	1
0	684	219.77323652174	2
0	685	221.917454669298	1
0	687	222.017425357422	0
0	692	222.626527771182	1
0	693	225.870416502129	0
0	698	228.048940547742	1
0	702	230.566349255724	2
0	706	230.840398803602	3
0	710	231.101340674461	4
0	714	232.960651846956	5
0	715	234.753279593909	4
0	717	235.248548668104	3
0	719	235.371449760387	2
0	721	236.674782284209	1
0	723	240.637105484517	0
0	728	241.181183257507	1
0	729	244.808670306459	0
0	734	245.877962759716	1
0	738	246.482975388503	2
0	742	248.29927831092	3
0	746	249.112254889835	4
0	747	249.37237642193	3
0	749	249.703125205269	2
0	751	250.252382940336	1
0	756	250.291644387069	2
0	757	251.113535948983	1
0	762	252.362499678881	2
0	763	253.113592109237	1
0	768	253.198609853488	2
0	769	254.554392840864	1
0	774	256.916203990233	2
0	775	257.472549380036	1
0	780	258.895587624159	2
0	781	259.081520779694	1
0	786	259.342336015623	2
0	790	260.301518235348	3
0	791	261.13444856528	2
0	796	261.784144664872	3
0	797	261.903363287294	2
0	799	262.704691939317	1
0	804	264.034320823461	2
0	805	264.230820916905	1
0	810	264.694829037592	2
0	811	265.334195236251	1
0	813	265.526470890037	0
0	818	267.495084219801	1
0	819	267.761808904108	0
0	824	269.913458478905	1
0	828	270.115365298656	2
0	832	270.330510091597	3
0	833	270.675258065687	2
0	835	270.982533686464	1
0	840	271.173612309483	2
0	844	274.603223141453	3
0	845	274.860762723718	2
0	847	276.230010970079	1
0	849	279.589928529504	0
0	854	279.774333196117	1
0	855	282.444549621954	0
0	860	282.613227150629	1
0	864	286.838505561166	2
0	865	287.023562588269	1
0	867	289.999177450411	0
0	872	290.688790432133	1
0	876	291.062530236862	2
0	880	292.82012187594	3
0	881	293.601252003199	2
0	886	293.683822877425	3
0	887	293.900958061381	2
0	892	296.367622562935	3
0	896	296.426420093053	4
0	900	296.806228947182	5
0	904	297.093713221528	6
0	905	297.147380039912	5
0	907	298.92485525093	4
0	909	299.598914298967	3
0	911	299.702782976335	2
0	913	300.745724366831	1
0	918	304.940842157858	2
0	919	306.86152823689	1
0	921	309.341937964099	0
0	926	310.319089501099	1
0	930	312.768942847762	2
0	931	313.488083167449	1
0	933	313.5996007411	0
0	938	318.268044585152	1
0	939	318.362919282751	0
0	944	320.940662336008	1
0	948	321.911349718203	2
0	949	323.272371641814	1
0	951	323.297978731452	0
0	956	326.320228077621	1
0	960	328.036213731917	2
0	961	329.881138797591	1
0	966	331.572666462319	2
0	970	331.77300105146	3
0	974	332.039692145818	4
0	975	333.006372028145	3
0	977	333.199894531881	2
0	979	334.28680627339	1
0	984	334.611323182484	2
0	985	334.779409304788	1
0	990	335.077153276091	2
0	994	335.977427516986	3
0	995	338.037107347234	2
0	997	339.744988448001	1
0	1002	341.769518659848	2
0	1003	342.481021714603	1
0	1005	344.360190070245	0
0	1010	344.480955237716	1
0	1014	345.597036310367	2
0	1018	345.960019201864	3
0	1019	347.25985830131	2
0	1024	347.463378010037	3
0	1028	347.694592599782	4
0	1029	348.43420446209	3
0	1031	349.738877580003	2
0	1036	350.126795262407	3
0	1037	350.190106674193	2
0	1039	351.790278040235	1
0	1044	353.1964663511	2
0	1045	354.850625965877	1
0	1050	357.115083160042	2
0	1051	358.266104927344	1
0	1056	359.537879872779	2
0	1057	360.901844434223	1
0	1059	362.57308571096	0
0	1064	364.163476142728	1
0	1065	366.113401944355	0
0	1070	367.057744939539	1
0	1071	369.400995516176	0
0	1076	369.908455854695	1
0	1080	370.068505685454	2
0	1084	370.277290984789	3
0	1085	370.501377097562	2
0	1087	370.833050138429	1
0	1092	370.928623582211	2
0	1096	371.259488680746	3
0	1097	371.355410007219	2
0	1099	371.368838585873	1
0	1104	371.492372923553	2
0	1105	372.406347078984	1
0	1110	372.796853997593	2
0	1114	373.578401824122	3
0	1115	374.903023219923	2
0	1117	375.555801739703	1
0	1122	375.967587917055	2
0	1126	377.077196449533	3
0	1127	378.436771901099	2
0	1129	379.464239535402	1
0	1134	380.823620046744	2
0	1138	382.085569031174	3
0	1139	383.908217422643	2
0	1141	385.978105840852	1
0	1146	386.039031233399	2
0	1150	386.164886346922	3
0	1154	386.480091140107	4
0	1158	388.57139852704	5
0	1159	388.828725604405	4
0	1161	388.908913066054	3
0	1163	389.266732454922	2
0	1168	389.549705268222	3
0	1169	389.885915736593	2
0	1174	390.79066511047	3
0	1178	391.017332624852	4
0	1179	391.24022196237	3
0	1184	391.408538628154	4
0	1185	392.127181041433	3
0	1187	392.254159556115	2
0	1192	393.119199574654	3
0	1193	393.340998265467	2
0	1195	393.574262381228	1
0	1197	394.056599187321	0
0	1202	394.720524337898	1
0	1206	395.986174612963	2
0	1207	396.002410572855	1
0	1209	396.02496858058	0
0	1214	399.697025410117	1
0	1215	400.240302927147	0
0	1220	400.407022917956	1
0	1221	400.593818818549	0
0	1226	402.41269302929	1
0	1227	403.390531454693	0
0	1232	403.45639770971	1
0	1233	404.741057807835	0
0	1238	404.74910422675	1
0	1239	407.432855703439	0
0	1244	408.827868768296	1
0	1248	409.776304077329	2
0	1252	411.098109654498	3
0	1256	411.400653566229	4
0	1260	411.5575350349	5
0	1261	411.620030521403	4
0	1263	412.716828209937	3
0	1265	413.303008491141	2
0	1270	413.887612448361	3
0	1271	415.492111825548	2
0	1273	415.953691886905	1
0	1278	417.317911588863	2
0	1279	418.126892255498	1
0	1284	419.235793103228	2
0	1285	420.413354897983	1
0	1287	421.372630768411	0
0	1292	423.764076090847	1
0	1293	424.316595267664	0
0	1298	425.755436684294	1
0	1299	428.832621765932	0
0	1304	428.977547691925	1
0	1308	429.876584108557	2
0	1312	429.932792987343	3
0	1313	430.53356976665	2
0	1315	434.289911081343	1
0	1320	435.232264944382	2
0	1321	435.614977730438	1
0	1326	436.886565340583	2
0	1330	440.694028087159	3
0	1334	441.815277169315	4
0	1335	442.288330495358	3
0	1340	444.296765965623	4
0	1341	444.879031877479	3
0	1343	445.964392075048	2
0	1345	447.921114338757	1
0	1350	448.307150253806	2
0	1351	448.584766648545	1
0	1353	448.769667569233	0
0	1358	449.421151905504	1
0	1359	454.434201359317	0
0	1364	457.014169656588	1
0	1365	457.654786483862	0
0	1370	459.134689851408	1
0	1374	459.632700703789	2
0	1375	459.639041024632	1
0	1380	459.676679693917	2
0	1381	459.67782861251	1
0	1383	461.200782824714	0
0	1388	461.839732531693	1
0	1392	462.316414321736	2
0	1393	462.843521677794	1
0	1398	462.943175210107	2
0	1402	466.111590302606	3
0	1406	466.234539598223	4
0	1407	466.97576326635	3
0	1412	467.065166922959	4
0	1413	467.442762064357	3
0	1415	468.734955914157	2
0	1420	468.744302111506	3
0	1421	469.813987866126	2
0	1423	470.646960717588	1
0	1428	470.873056592412	2
0	1432	472.243991608536	3
0	1433	472.306091856984	2
0	1438	473.937578634787	3
0	1439	474.305548648744	2
0	1441	475.17658286139	1
0	1443	478.513060508079	0
0	1448	481.717958130789	1
0	1452	484.569919139157	2
0	1453	485.642069868972	1
0	1455	485.791087483173	0
0	1460	496.058079210025	1
0	1461	500.868242024053	0
0	1466	500.973632856553	1
0	1467	501.243242147627	0
0	1472	506.289936943701	1
0	1476	506.509004796176	2
0	1480	506.548664848844	3
0	1481	506.952846954366	2
0	1483	507.09617892792	1
0	1488	507.113058699871	2
0	1492	507.175545652174	3
0	1496	507.554674127491	4
0	1497	507.793880902813	3
0	1499	508.238666803435	2
0	1501	508.952386017567	1
0	1506	511.072412792177	2
0	1507	511.812730857755	1
0	1509	512.702356748656	0
0	1514	516.459319562734	1
0	1518	520.749069522419	2
0	1522	520.780452697933	3
0	1526	521.473903028171	4
0	1527	522.074316275005	3
0	1529	523.318713722799	2
0	1531	523.793495460734	1
0	1536	524.485116693806	2
0	1540	525.818349576114	3
0	1541	526.742463795523	2
0	1543	528.06664770242	1
0	1545	528.239977692416	0
0	1550	528.844172712932	1
0	1551	528.873439944449	0
0	1556	540.263637669888	1
0	1560	540.446111736082	2
0	1564	540.787690885063	3
0	1568	542.016761734416	4
0	1569	542.651356681014	3
0	1571	542.655585951199	2
0	1573	544.134252534504	1
0	1575	545.702663408777	0
0	1580	548.884045944315	1
0	1584	548.89387703189	2
0	1588	549.323214876107	3
0	1589	550.219186652758	2
0	1594	550.426149208833	3
0	1595	551.464119290987	2
0	1597	551.90116866354	1
0	1602	554.913663501793	2
0	1603	556.577181168991	1
0	1605	557.262614453771	0
0	1610	557.906215079839	1
0	1614	558.435994666589	2
0	1618	558.853480595861	3
0	1619	560.446359387106	2
0	1621	561.5151302274	1
0	1626	565.331911884669	2
0	1630	567.307993069636	3
0	1634	570.104244527322	4
0	1635	570.511176987831	3
0	1637	571.896987598701	2
0	1639	572.02465022728	1
0	1641	572.268215877848	0
0	1646	576.606443264109	1
0	1650	577.405736856415	2
0	1651	577.70034225192	1
0	1656	578.614661980679	2
0	1657	578.698914561986	1
0	1662	579.520206805262	2
0	1666	579.636124532529	3
0	1670	579.69859024422	4
0	1671	580.081399586816	3
0	1673	580.106460209964	2
0	1675	580.417342757079	1
0	1680	580.770165903665	2
0	1684	580.914108559954	3
0	1688	581.27366271531	4
0	1692	581.613753910702	5
0	1693	581.967578076903	4
0	1695	582.30691265136	3
0	1700	582.460915752663	4
0	1701	582.716379082382	3
0	1703	582.818342308212	2
0	1705	583.118219736042	1
0	1707	584.086292177611	0
0	1712	584.494099034593	1
0	1716	585.532466948401	2
0	1720	585.924339368193	3
0	1724	586.119329485765	4
0	1725	586.215052174331	3
0	1730	586.834230552074	4
0	1731	586.917973959314	3
0	1733	587.694987489385	2
0	1735	587.898204363362	1
0	1740	588.57068676438	2
0	1741	589.551942301574	1
0	1743	590.533921991108	0
0	1748	592.037373747242	1
0	1749	592.271811393989	0
0	1754	592.775296265194	1
0	1755	592.922042657816	0
0	1760	595.23325812739	1
0	1764	596.678799362155	2
0	1768	597.915541445935	3
0	1772	598.001634273373	4
0	1773	598.429457253015	3
0	1778	598.990370634064	4
0	1782	599.051411790611	5
0	1783	600.354115113799	4
0	1785	600.437423022859	3
0	1787	601.209431643737	2
0	1792	601.264483690986	3
0	1793	602.968724664339	2
0	1795	603.239146005385	1
0	1800	603.66825337401	2
0	1804	603.815693446803	3
0	1808	604.448328628037	4
0	1809	604.468218741439	3
0	1811	606.384464138111	2
0	1816	610.44357118488	3
0	1820	610.99439149584	4
0	1821	611.465241419302	3
0	1823	612.145391843194	2
0	1828	612.679151363046	3
0	1832	613.154381281037	4
0	1833	613.576722071595	3
0	1835	613.61920909186	2
0	1840	613.619607573919	3
0	1844	613.826858435391	4
0	1845	613.96609379164	3
0	1847	614.569349952249	2
0	1849	614.61497961715	1
0	1851	614.938946185249	0
0	1856	615.316913096656	1
0	1857	615.396059726927	0
0	1862	617.144647015675	1
0	1866	620.26867429005	2
0	1870	620.745868514134	3
0	1871	620.863157483574	2
0	1873	621.085831475219	1
0	1878	622.869625398194	2
0	1882	625.668086208465	3
0	1883	628.025880450176	2
0	1885	628.748701916095	1
0	1890	628.97162723095	2
0	1891	629.03076619977	1
0	1896	629.354072344735	2
0	1897	629.567968836203	1
0	1902	630.838332160817	2
0	1906	630.854146130539	3
0	1907	631.185466998484	2
0	1912	632.359939399509	3
0	1913	633.074493760572	2
0	1918	633.214974391366	3
0	1919	633.412859227657	2
0	1924	633.749176041342	3
0	1925	634.179040122948	2
0	1930	634.413693910788	3
0	1931	636.316441499618	2
0	1936	638.245239844342	3
0	1937	639.252417862104	2
0	1942	639.738957414414	3
0	1943	639.807237326144	2
0	1948	641.186191357139	3
0	1952	641.358064550425	4
0	1956	641.542823083682	5
0	1957	641.984424344601	4
0	1959	644.330040166618	3
0	1964	644.738800225016	4
0	1965	645.170538640368	3
0	1970	647.349685073758	4
0	1971	648.092557258358	3
0	1973	649.095899739787	2
0	1975	651.357871177046	1
0	1977	651.395188693257	0
0	1982	654.780722456502	1
0	1986	654.899213611937	2
0	1990	656.835467828136	3
0	1991	658.734103823265	2
0	1993	659.407846462726	1
0	1995	660.012178192579	0
0	2000	661.381724418063	1
0	2004	662.878591079255	2
0	2008	663.588436435869	3
0	2012	664.632657813951	4
0	2016	664.833621776834	5
0	2017	665.141003432975	4
0	2019	665.446239863467	3
0	2021	665.751529037737	2
0	2023	666.62121368317	1
0	2025	667.889823552531	0
0	2030	670.667435496101	1
0	2031	672.057653102073	0
0	2036	672.080629143212	1
0	2040	676.964890879043	2
0	2041	677.71132137276	1
0	2046	678.296945270499	2
0	2047	678.598835761052	1
0	2049	682.442837920943	0
0	2054	682.670424536445	1
0	2058	685.533976342046	2
0	2059	686.190563874494	1
0	2061	687.59986874349	0
0	2066	695.877669867361	1
0	2070	697.3162002817	2
0	2074	698.834025955248	3
0	2075	700.217110897707	2
0	2077	700.529304797833	1
0	2082	703.347981277548	2
0	2086	703.495425406257	3
0	2090	704.339988507381	4
0	2094	704.681288934344	5
0	2095	704.822487627305	4
0	2097	706.110912454206	3
0	2102	707.110342505399	4
0	2103	707.736422050578	3
0	2105	707.869945136007	2
0	2107	709.912794580223	1
0	2109	709.956282823004	0
0	2114	711.109145994043	1
0	2115	712.486894524288	0
0	2120	712.61549269516	1
0	2124	714.110014117114	2
0	2128	714.885758378271	3
0	2129	715.00275621878	2
0	2131	715.789313787757	1
0	2136	716.21939065009	2
0	2140	716.75814900453	3
0	2141	717.268877990193	2
0	2146	720.326476272969	3
0	2147	720.752102472326	2
0	2149	721.090360035073	1
0	2151	721.488071949275	0
0	2156	725.897047389042	1
0	2157	728.002536143758	0
0	2162	729.471886085377	1
0	2166	731.322124975835	2
0	2167	733.315201732419	1
0	2172	734.589084253508	2
0	2173	735.690683612198	1
0	2178	736.620658230797	2
0	2179	737.525087080597	1
0	2181	737.879995569603	0
0	2186	745.039254512503	1
0	2187	746.9358256638	0
0	2192	747.790610836549	1
0	2193	747.980753277838	0
0	2198	753.596962995023	1
0	2202	754.728871281212	2
0	2206	755.102909069583	3
0	2207	755.797411463667	2
0	2209	756.168577907156	1
0	2211	756.517772040579	0
0	2216	758.466869272616	1
0	2217	759.03627524644	0
0	2222	759.409808353788	1
0	2223	760.659373097553	0
0	2228	760.860502379413	1
0	2229	761.908538817374	0
0	2234	762.867702163978	1
0	2238	763.323759240075	2
0	2239	764.218482564849	1
0	2244	767.08280837192	2
0	2245	768.286344407185	1
0	2250	768.783916802537	2
0	2254	769.132409398871	3
0	2255	770.774648047391	2
0	2260	770.866695114168	3
0	2264	773.113785454203	4
0	2265	773.861372655873	3
0	2267	775.767272199581	2
0	2269	776.180405074671	1
0	2274	776.192426218518	2
0	2275	777.728233592613	1
0	2280	778.319867616287	2
0	2281	778.717935470099	1
0	2286	779.831659332319	2
0	2290	779.848519095391	3
0	2294	780.555703364553	4
0	2295	782.510671107701	3
0	2297	782.723839318723	2
0	2299	784.073662031113	1
0	2304	785.288207742712	2
0	2308	785.617719763485	3
0	2312	786.782064679628	4
0	2313	789.547334261053	3
0	2318	790.08657845592	4
0	2322	790.101695245198	5
0	2326	790.52797657113	6
0	2327	790.992069288589	5
0	2329	791.351905904833	4
0	2331	791.539080513435	3
0	2333	792.117193852485	2
0	2338	793.189102083466	3
0	2339	793.241694020954	2
0	2341	793.254172534661	1
0	2343	793.320556367965	0
0	2348	793.987807233739	1
0	2352	794.143228501381	2
0	2356	794.831235838536	3
0	2360	795.275675865726	4
0	2364	795.430881040309	5
0	2368	795.489241209035	6
0	2372	795.882502397412	7
0	2373	796.589525613181	6
0	2375	796.789063822611	5
0	2380	796.901518709895	6
0	2381	797.599367329245	5
0	2383	798.32512703845	4
0	2385	799.045230145687	3
0	2387	799.085148976644	2
0	2389	800.38139676119	1
0	2394	800.71770475256	2
0	2398	802.062978255873	3
0	2399	803.531706020433	2
0	2404	803.740866024714	3
0	2405	804.757689970972	2
0	2410	805.440293487	3
0	2411	807.526069446244	2
0	2416	807.553060571069	3
0	2420	808.025300513939	4
0	2421	810.809972715912	3
0	2423	810.901022151286	2
0	2425	811.4162057537	1
0	2430	814.454671729231	2
0	2431	814.577120356043	1
0	2433	814.635150510737	0
0	2438	817.237370645547	1
0	2442	818.113014071845	2
0	2446	818.154795204167	3
0	2447	818.284965190186	2
0	2449	818.297849247412	1
0	2451	818.699940641585	0
0	2456	819.819251023118	1
0	2460	820.316957225727	2
0	2461	821.074028092077	1
0	2466	824.201438825064	2
0	2467	825.075369865782	1
0	2469	827.726446297392	0
0	2474	827.879004945875	1
0	2475	828.238863761513	0
0	2480	830.756706447139	1
0	2484	831.175878530793	2
0	2488	832.736850413565	3
0	2489	833.215452109002	2
0	2494	833.58009090395	3
0	2495	834.6516402262	2
0	2497	837.072874046646	1
0	2502	839.024716090902	2
0	2503	839.290633402914	1
0	2508	842.458114906626	2
0	2512	842.785950544629	3
0	2513	843.230183894954	2
0	2518	843.336446840096	3
0	2519	843.464217410858	2
0	2521	844.120914497477	1
0	2526	844.278982570302	2
0	2527	844.993988636163	1
0	2532	848.777436540496	2
0	2533	849.922583629814	1
0	2538	852.44798569115	2
0	2539	853.081643075999	1
0	2544	853.27417876544	2
0	2545	856.634317531608	1
0	2550	856.725658126658	2
0	2551	856.782498836143	1
0	2556	857.125529309344	2
0	2560	857.582053449201	3
0	2561	858.496718882476	2
0	2563	858.633327427127	1
0	2568	859.863837757462	2
0	2572	860.791172805721	3
0	2573	860.808807834337	2
0	2575	860.857700746816	1
0	2580	862.82716854067	2
0	2584	863.049897960898	3
0	2585	863.439445071087	2
0	2587	863.594678628348	1
0	2592	864.317202698106	2
0	2596	865.21537477371	3
0	2597	865.296601112696	2
0	2599	866.063781543939	1
0	2604	866.829957288467	2
0	2608	868.125037401641	3
0	2609	868.380496166377	2
0	2611	868.979168304335	1
0	2616	870.868747338548	2
0	2620	871.180603326613	3
0	2621	872.100143100737	2
0	2626	872.827319899362	3
0	2627	873.370321752016	2
0	2629	874.485104156624	1
0	2631	874.602987339903	0
0	2636	880.211869258945	1
0	2640	880.367197798822	2
0	2644	880.507584834372	3
0	2645	880.547266354158	2
0	2650	881.638851175232	3
0	2651	882.025564902956	2
0	2653	882.797692472039	1
0	2655	884.437658318456	0
0	2660	886.013778982499	1
0	2664	887.112007036277	2
0	2665	887.29193159935	1
0	2667	887.824977983628	0
0	2672	889.739695246108	1
0	2676	890.357574595546	2
0	2680	891.114032881024	3
0	2684	891.385262085739	4
0	2685	892.547765069275	3
0	2687	892.900511979786	2
0	2689	895.836295917763	1
0	2694	898.677984362419	2
0	2695	898.72057897133	1
0	2700	900.413180180686	2
0	2701	900.824391038367	1
0	2703	904.319810250291	0
0	2708	907.844404867315	1
0	2712	907.93333932158	2
0	2713	908.773466321977	1
0	2715	910.083753496922	0
0	2720	910.878203548693	1
0	2721	913.82885495527	0
0	2726	915.034595495541	1
0	2730	916.278195561833	2
0	2731	916.79464223172	1
0	2733	919.228554726424	0
0	2738	920.630879659713	1
0	2739	920.918155337057	0
0	2744	921.022304103598	1
0	2748	921.306446129128	2
0	2749	921.464933548869	1
0	2754	921.541480894795	2
0	2755	923.107228189846	1
0	2760	923.687660082462	2
0	2761	923.797725138535	1
0	2763	925.48485646492	0
0	2768	925.826758229403	1
0	2769	926.525540172593	0
0	2774	928.000328823998	1
0	2775	928.630262020432	0
0	2780	935.276225432834	1
0	2784	935.726865343664	2
0	2788	935.800456270529	3
0	2792	936.092363859951	4
0	2793	936.642282590611	3
0	2798	937.194919314952	4
0	2799	938.739250092385	3
0	2801	939.242127485932	2
0	2803	939.802222799821	1
0	2805	940.772110911402	0
0	2810	942.533732500196	1
0	2811	942.820496735361	0
0	2816	946.514334263634	1
0	2820	946.554514800782	2
0	2821	947.842982845844	1
0	2826	949.343842496959	2
0	2827	949.757381841798	1
0	2829	950.721821506324	0
0	2834	952.70590375037	1
0	2838	952.753631266504	2
0	2842	953.34304179179	3
0	2843	953.355131474839	2
0	2845	953.528822256886	1
0	2847	954.075778766434	0
0	2852	956.383460886161	1
0	2856	957.758880986115	2
0	2857	959.266916834553	1
0	2859	960.837876219451	0
0	2864	962.290694000799	1
0	2868	965.049614986883	2
0	2869	965.344557410255	1
0	2871	967.289475818042	0
0	2876	967.356873575098	1
0	2880	970.628003898182	2
0	2881	971.890649589626	1
0	2886	972.387373491797	2
0	2887	973.854260604175	1
0	2889	973.913642402941	0
0	2894	974.620201806183	1
0	2898	974.868478669005	2
0	2902	974.89862910138	3
0	2903	974.914534145818	2
0	2905	975.016210786623	1
0	2910	975.632697752914	2
0	2911	975.876867786807	1
0	2913	976.52345364799	0
0	2918	976.562475738734	1
0	2922	978.616777300715	2
0	2926	980.034140221835	3
0	2927	980.798559795762	2
0	2932	980.976949144176	3
0	2933	981.874967062013	2
0	2938	982.101658852919	3
0	2942	983.536534340908	4
0	2943	984.352712717224	3
0	2945	984.701048302479	2
0	2947	985.007928837423	1
0	2952	985.51945361647	2
0	2956	986.433787439437	3
0	2957	987.434633532183	2
0	2962	992.490018262812	3
0	2966	992.793731862175	4
0	2967	993.370842871724	3
0	2969	994.157192414817	2
0	2971	995.328005621862	1
0	2976	995.512817632042	2
0	2980	996.852294949646	3
0	2981	997.42326399221	2
0	2983	997.553328905477	1
0	2985	999.964175900488	0
1	356	101.97541626389	16
1	358	103.12979833188	15
1	362	104.077097703732	14
1	366	105.045798162255	13
1	370	105.764876140403	12
1	374	106.156301231176	13
1	376	106.163565981874	14
1	378	106.199027592788	13
1	382	108.865025017631	12
1	386	109.089480529511	13
1	388	109.161844310248	14
1	390	111.424692370621	15
1	392	112.884670965221	16
1	394	113.077574984119	17
1	396	114.107909400339	16
1	400	115.451689190123	17
1	402	116.413409198613	16
1	406	116.521873638374	17
1	408	117.517418832603	16
1	412	119.188460219265	15
1	416	119.672550404898	14
1	420	119.83004131326	15
1	422	119.888761986402	16
1	424	120.014200859969	15
1	428	120.641433677385	16
1	430	123.627713584097	15
1	434	123.95946571034	16
1	436	124.992362439005	17
1	438	127.357086688904	16
1	442	128.197382865114	17
1	444	129.4209504434	16
1	448	129.70924725753	15
1	452	130.098171031117	14
1	456	130.866169128506	13
1	460	131.01128056346	14
1	462	132.90635889956	15
1	464	133.153786667646	16
1	466	134.176466715635	17
1	468	137.115511033619	16
1	472	137.62939051904	15
1	476	139.743115625533	16
1	478	142.056493465375	15
1	482	146.034793143614	16
1	484	147.45055761537	15
1	488	147.628449627402	14
1	492	147.805869294133	15
1	494	150.679166593125	16
1	496	150.964538035945	15
1	500	152.238610950011	16
1	502	153.193601225694	17
1	504	161.345703366496	16
1	508	161.664543760553	17
1	510	162.215665693894	16
1	514	163.539196439425	15
1	518	163.666314078061	16
1	520	165.681419101458	17
1	522	166.2497966508	16
1	526	167.182694337701	15
1	530	167.254275155257	14
1	534	167.291614800818	15
1	536	167.585589008183	14
1	540	168.361910941669	13
1	544	168.576012333213	14
1	546	168.611921683564	13
1	550	168.715258830294	14
1	552	169.503511350292	13
1	556	170.564133923514	14
1	558	171.895509716226	13
1	562	173.477653285795	14
1	564	174.064708486335	15
1	566	175.038265846626	14
1	570	175.194471949678	15
1	572	175.990317965455	16
1	574	176.22006128893	15
1	578	176.813330912115	16
1	580	181.055529829952	17
1	582	183.283666151478	16
1	586	183.345472613193	17
1	588	184.713280378115	16
1	592	186.04472949624	15
1	596	186.154513700677	14
1	600	186.720122696119	13
1	604	187.26351609899	14
1	606	187.634671335953	15
1	608	189.540694657126	14
1	612	189.70711259187	15
1	614	191.515713662866	14
1	618	191.569533378447	15
1	620	192.149646808822	16
1	622	194.272568791689	15
1	626	196.079302586013	16
1	628	198.781113233786	17
1	630	203.068276871662	16
1	634	204.851164629284	15
1	638	206.061782188664	16
1	640	206.263126270034	15
1	644	206.709761231528	16
1	646	206.75309414073	15
1	650	207.601908815737	16
1	652	208.46007100686	15
1	656	211.505810676676	14
1	660	213.076964458408	15
1	662	214.385939339419	16
1	664	215.052261427143	15
1	668	215.603954656667	14
1	672	216.806521553007	15
1	674	217.673411534597	16
1	676	219.465496615525	15
1	680	219.724584857989	16
1	682	219.77323652174	15
1	686	221.917454669298	16
1	688	222.017425357422	17
1	690	222.626527771182	16
1	694	225.870416502129	17
1	696	228.048940547742	16
1	700	230.566349255724	15
1	704	230.840398803602	14
1	708	231.101340674461	13
1	712	232.960651846956	12
1	716	234.753279593909	13
1	718	235.248548668104	14
1	720	235.371449760387	15
1	722	236.674782284209	16
1	724	240.637105484517	17
1	726	241.181183257507	16
1	730	244.808670306459	17
1	732	245.877962759716	16
1	736	246.482975388503	15
1	740	248.29927831092	14
1	744	249.112254889835	13
1	748	249.37237642193	14
1	750	249.703125205269	15
1	752	250.252382940336	16
1	754	250.291644387069	15
1	758	251.113535948983	16
1	760	252.362499678881	15
1	764	253.113592109237	16
1	766	253.198609853488	15
1	770	254.554392840864	16
1	772	256.916203990233	15
1	776	257.472549380036	16
1	778	258.895587624159	15
1	782	259.081520779694	16
1	784	259.342336015623	15
1	788	260.301518235348	14
1	792	261.13444856528	15
1	794	261.784144664872	14
1	798	261.903363287294	15
1	800	262.704691939317	16
1	802	264.034320823461	15
1	806	264.230820916905	16
1	808	264.694829037592	15
1	812	265.334195236251	16
1	814	265.526470890037	17
1	816	267.495084219801	16
1	820	267.761808904108	17
1	822	269.913458478905	16
1	826	270.115365298656	15
1	830	270.330510091597	14
1	834	270.675258065687	15
1	836	270.982533686464	16
1	838	271.173612309483	15
1	842	274.603223141453	14
1	846	274.860762723718	15
1	848	276.230010970079	16
1	850	279.589928529504	17
1	852	279.774333196117	16
1	856	282.444549621954	17
1	858	282.613227150629	16
1	862	286.838505561166	15
1	866	287.023562588269	16
1	868	289.999177450411	17
1	870	290.688790432133	16
1	874	291.062530236862	15
1	878	292.82012187594	14
1	882	293.601252003199	15
1	884	293.683822877425	14
1	888	293.900958061381	15
1	890	296.367622562935	14
1	894	296.426420093053	13
1	898	296.806228947182	12
1	902	297.093713221528	11
1	906	297.147380039912	12
1	908	298.92485525093	13
1	910	299.598914298967	14
1	912	299.702782976335	15
1	914	300.745724366831	16
1	916	304.940842157858	15
1	920	306.86152823689	16
1	922	309.341937964099	17
1	924	310.319089501099	16
1	928	312.768942847762	15
1	932	313.488083167449	16
1	934	313.5996007411	17
1	936	318.268044585152	16
1	940	318.362919282751	17
1	942	320.940662336008	16
1	946	321.911349718203	15
1	950	323.272371641814	16
1	952	323.297978731452	17
1	954	326.320228077621	16
1	958	328.036213731917	15
1	962	329.881138797591	16
1	964	331.572666462319	15
1	968	331.77300105146	14
1	972	332.039692145818	13
1	976	333.006372028145	14
1	978	333.199894531881	15
1	980	334.28680627339	16
1	982	334.611323182484	15
1	986	334.779409304788	16
1	988	335.077153276091	15
1	992	335.977427516986	14
1	996	338.037107347234	15
1	998	339.744988448001	16
1	1000	341.769518659848	15
1	1004	342.481021714603	16
1	1006	344.360190070245	17
1	1008	344.480955237716	16
1	1012	345.597036310367	15
1	1016	345.960019201864	14
1	1020	347.25985830131	15
1	1022	347.463378010037	14