version 3
run General-22-20221103-10:28:22-6760
attr configname General
attr datetime 20221103-10:28:22
attr datetimef 20221103-102822
attr experiment General
attr inifile block.ini
attr iterationvars "$0=3, $1=20"
attr iterationvarsd 3/20
attr iterationvarsf 3,20-
attr measurement "$0=3, $1=20"
attr network Block
attr processid 6760
attr repetition 2
attr replication #2
attr resultdir results
attr runnumber 22
attr seedset 22
config network Block
config repeat 5
config sim-time-limit 1000s
config warmup-period 100s
config **.alloca.resourceModuleName "\"risorse\""
config **.dealloca.resourceModuleName "\"risorse\""
config **.is.delay exponential(3s)
config **.servente.serviceTime exponential(3s)
config **.dealloca.resourceAmount 2
config **.alloca.resourceAmount 2
config **.risorse.amount 6
config **.sorgente.numJobs (20)
config **.result-recording-modes all

vector 0 Block.is delayedJobs:vector ETV
attr interpolationmode sample-hold
attr recordingmode vector
attr title "number of delayed jobs"
vector 1 Block.alloca queueLength:vector ETV
attr interpolationmode sample-hold
attr recordingmode vector
attr title "queue length"
vector 2 Block.servente queueLength:vector ETV
attr interpolationmode sample-hold
attr recordingmode vector
attr title "queue length"
vector 3 Block.servente queueingTime:vector ETV
attr interpolationmode none
attr recordingmode vector
attr title "queueing time at dequeue"
attr unit s
vector 4 Block.alloca queueingTime:vector ETV
attr interpolationmode none
attr recordingmode vector
attr title "queueing time at dequeue"
attr unit s
vector 5 Block.risorse amount:vector ETV
attr interpolationmode sample-hold
attr recordingmode vector
attr title "available resource"
0	231	100.681279042502	0
0	236	102.608250009427	1
0	240	103.24555267012	2
0	241	104.364247285109	1
0	243	104.78385745018	0
0	248	106.875522495491	1
0	249	107.015733171631	0
0	254	114.918531668266	1
0	255	116.645587781724	0
0	260	117.025609425983	1
0	261	117.328004276211	0
0	266	121.647580553093	1
0	267	121.786372469045	0
0	272	123.687478419059	1
0	276	125.784228028313	2
0	277	127.15139551648	1
0	282	129.284770649222	2
0	283	129.686075242374	1
0	288	131.135486294257	2
0	289	131.45944645173	1
0	291	131.550046665804	0
0	296	134.349874418637	1
0	297	136.271880195925	0
0	302	139.404756400626	1
0	303	140.065045411685	0
0	308	142.88242304953	1
0	312	143.734445535902	2
0	316	145.817877829108	3
0	317	146.53944346727	2
0	319	147.447016696539	1
0	321	147.576142673822	0
0	326	149.113304295613	1
0	330	149.178914054986	2
0	331	152.881750417459	1
0	336	153.768853393712	2
0	337	154.509358423779	1
0	342	160.511975590559	2
0	343	161.061899575776	1
0	345	161.17030963005	0
0	350	162.056657949023	1
0	351	164.378203849973	0
0	356	167.61660822914	1
0	357	168.744709257268	0
0	362	171.481772228147	1
0	366	171.812460473774	2
0	367	172.083073939242	1
0	372	176.314309676418	2
0	373	177.445266387523	1
0	378	177.680119317063	2
0	379	178.422187387923	1
0	381	178.757284623605	0
0	386	181.391846453062	1
0	387	185.394845286814	0
0	392	186.696180582544	1
0	396	189.600377791152	2
0	400	190.844576183429	3
0	401	191.430931645545	2
0	403	191.986402828295	1
0	408	193.355808631914	2
0	409	193.694733367743	1
0	411	199.221183121551	0
0	416	199.422182054224	1
0	417	199.438765045995	0
0	422	201.763705107076	1
0	423	203.09153906758	0
0	428	203.303691891475	1
0	432	206.697687435265	2
0	436	208.327809276601	3
0	437	208.397765660962	2
0	439	212.485992689576	1
0	444	213.535120633051	2
0	448	213.898802729965	3
0	452	213.985979327295	4
0	453	214.436593024019	3
0	455	215.228079986262	2
0	457	216.504887762008	1
0	459	216.888652720655	0
0	464	224.167202024798	1
0	465	224.998904376954	0
0	470	232.90434377564	1
0	474	233.373912209372	2
0	475	233.4197562448	1
0	480	233.865205604457	2
0	481	235.474807172461	1
0	483	236.409666294105	0
0	488	238.833523581124	1
0	492	240.546444498726	2
0	493	240.737889057379	1
0	498	241.14888352398	2
0	499	242.322468019003	1
0	501	242.67529413454	0
0	506	243.01018515787	1
0	510	245.203902823315	2
0	514	245.583136879883	3
0	518	245.861491102757	4
0	519	246.074300098827	3
0	524	248.095920867849	4
0	525	248.886677856784	3
0	527	249.537999012297	2
0	532	249.591807578156	3
0	533	249.684588402325	2
0	538	249.982464505228	3
0	542	250.479142188274	4
0	543	251.526551302372	3
0	545	251.680198798253	2
0	547	253.195262971813	1
0	552	253.407058084249	2
0	553	255.526031769853	1
0	558	264.116403216856	2
0	562	269.93246489838	3
0	563	271.67622456256	2
0	565	272.209771114187	1
0	567	272.370085765552	0
0	572	274.88031959306	1
0	573	275.549857705624	0
0	578	277.004430424128	1
0	582	277.443930638507	2
0	586	279.975472445588	3
0	587	280.154572374167	2
0	589	281.891111780851	1
0	591	282.389590571317	0
0	596	284.223899821221	1
0	600	288.425218522041	2
0	601	288.910218192783	1
0	606	290.191139240406	2
0	607	290.218956874012	1
0	612	293.073815412217	2
0	616	293.593550968951	3
0	620	293.930223059535	4
0	624	294.238907381279	5
0	625	294.272099068446	4
0	627	294.424027239003	3
0	629	295.906813502234	2
0	631	297.008158629268	1
0	633	300.101841269421	0
0	638	303.527997565176	1
0	642	303.885848340797	2
0	643	303.97330879465	1
0	648	305.733960583755	2
0	649	308.876742871577	1
0	651	309.389155894675	0
0	656	310.662013987205	1
0	660	311.546100343464	2
0	661	313.058331604505	1
0	663	314.981047589455	0
0	668	315.518741047912	1
0	672	315.927704746438	2
0	673	316.163658115462	1
0	675	316.482803548076	0
0	680	319.108596624986	1
0	684	319.35461720843	2
0	688	321.160149307446	3
0	692	322.508431630148	4
0	693	323.293103114154	3
0	695	323.440441968132	2
0	697	325.716702828987	1
0	699	327.706407534024	0
0	704	332.313721367732	1
0	708	332.846246393508	2
0	709	334.558966261988	1
0	711	335.584041175024	0
0	716	336.368061316649	1
0	720	336.85981779701	2
0	724	337.965767037342	3
0	725	338.071141239077	2
0	727	338.536830684793	1
0	729	339.359791836513	0
0	734	341.995908234199	1
0	738	342.589992183371	2
0	742	342.694179533394	3
0	743	343.882689078508	2
0	745	345.016609257257	1
0	750	347.725175737156	2
0	751	347.747485081638	1
0	753	348.172153606779	0
0	758	353.643230953431	1
0	759	353.79381412652	0
0	764	355.323365018293	1
0	768	356.788202631227	2
0	769	357.503365818634	1
0	774	358.407008501962	2
0	778	359.417347372389	3
0	779	360.940115732355	2
0	781	362.278223653927	1
0	783	363.446096807353	0
0	788	364.438466557932	1
0	789	368.434802671473	0
0	794	369.173619221257	1
0	795	372.332852949138	0
0	800	374.055948105553	1
0	804	375.273458958085	2
0	808	375.783598336904	3
0	809	375.896990875	2
0	814	377.053478349817	3
0	815	377.421935716958	2
0	817	378.130056403028	1
0	822	378.211590130437	2
0	826	378.968026439262	3
0	830	380.104718813587	4
0	831	380.77125583817	3
0	836	381.456002338637	4
0	837	381.828162976502	3
0	839	382.448818188051	2
0	841	382.888860368429	1
0	846	384.434612316664	2
0	850	385.792537553865	3
0	854	385.901277588374	4
0	855	386.51634353069	3
0	857	387.434826390647	2
0	862	387.827005528412	3
0	863	389.043371420711	2
0	865	389.667749796274	1
0	870	390.873842266135	2
0	871	390.88652402715	1
0	873	391.653907037032	0
0	878	402.419890597383	1
0	882	402.495865667213	2
0	886	402.65825159509	3
0	887	402.739492435866	2
0	889	404.638260578723	1
0	891	407.848084184014	0
0	896	409.22989401133	1
0	897	409.733790002483	0
0	902	414.958842689682	1
0	906	415.355371620535	2
0	910	415.445097949988	3
0	914	415.455978607828	4
0	915	415.463051841355	3
0	917	415.702478653418	2
0	922	416.519011790195	3
0	923	417.358575009212	2
0	925	418.847651900209	1
0	927	422.139053265403	0
0	932	426.88746731261	1
0	936	427.070814246329	2
0	937	427.230902964387	1
0	942	428.709509914498	2
0	943	430.451163980837	1
0	945	437.078459902471	0
0	950	444.926641353761	1
0	954	446.02843938792	2
0	955	446.617650902122	1
0	957	456.708694346174	0
0	962	461.933751012809	1
0	966	462.035467122499	2
0	967	463.350938319817	1
0	969	464.627163176722	0
0	974	467.943289414835	1
0	975	468.916538384638	0
0	980	473.015273994793	1
0	981	473.606661279684	0
0	986	482.444775223869	1
0	987	484.594970267212	0
0	992	484.602356220707	1
0	996	488.261256484996	2
0	997	490.391082870656	1
0	1002	493.816809721743	2
0	1006	494.267522083066	3
0	1010	494.868612653612	4
0	1011	494.891807962704	3
0	1013	495.002090954848	2
0	1015	495.063568089786	1
0	1020	497.434890009481	2
0	1024	499.599714465421	3
0	1025	499.857813011971	2
0	1027	501.582776574657	1
0	1032	502.358001516155	2
0	1033	502.979792861351	1
0	1038	503.236583282203	2
0	1042	503.272288827923	3
0	1046	504.159147014659	4
0	1047	504.180567090418	3
0	1049	504.80884489219	2
0	1054	508.223451010936	3
0	1055	508.240962825204	2
0	1057	513.030111446904	1
0	1062	518.691524316047	2
0	1063	518.885903334026	1
0	1068	520.216869592557	2
0	1072	520.467730986323	3
0	1073	520.726955464474	2
0	1075	521.355404822393	1
0	1077	522.999828016777	0
0	1082	529.069427853685	1
0	1086	531.370590105195	2
0	1087	532.246059295273	1
0	1089	533.174987337222	0
0	1094	536.179633732213	1
0	1095	537.476132770909	0
0	1100	545.252357624627	1
0	1104	545.869753494788	2
0	1105	548.455406975068	1
0	1107	551.268596765599	0
0	1112	557.563910170823	1
0	1116	558.179966160082	2
0	1120	559.559552869283	3
0	1121	559.741959598811	2
0	1126	560.390324980162	3
0	1127	561.400284070098	2
0	1129	561.863983477241	1
0	1134	561.923406166748	2
0	1138	563.080764304579	3
0	1142	563.253405779878	4
0	1143	563.683411628981	3
0	1145	564.053761799184	2
0	1147	565.191030396396	1
0	1152	567.741622931014	2
0	1153	568.897066809438	1
0	1155	573.121770268574	0
0	1160	573.211287490721	1
0	1161	575.084008286725	0
0	1166	575.818127010233	1
0	1167	576.582815038118	0
0	1172	581.199112350098	1
0	1173	581.217165071167	0
0	1178	586.419848782015	1
0	1182	588.211690481992	2
0	1183	588.753332168099	1
0	1185	590.346831382166	0
0	1190	591.039677714785	1
0	1191	591.183208064593	0
0	1196	591.981919111523	1
0	1197	594.50849875109	0
0	1202	595.003805469139	1
0	1206	596.358942218244	2
0	1210	600.53609998607	3
0	1211	601.30357905461	2
0	1216	602.91454248488	3
0	1217	603.212810326736	2
0	1222	603.561527229658	3
0	1226	606.555725600879	4
0	1227	606.872747113147	3
0	1229	607.582387015721	2
0	1231	608.068571422822	1
0	1233	608.339167604392	0
0	1238	614.357342481586	1
0	1242	614.917359417347	2
0	1243	615.866500447776	1
0	1245	617.902472357306	0
0	1250	621.588148446855	1
0	1251	621.899677170647	0
0	1256	622.840456281623	1
0	1257	623.475537740661	0
0	1262	624.969806973854	1
0	1263	625.238122673939	0
0	1268	629.698404818094	1
0	1272	630.619555148879	2
0	1273	635.557307823304	1
0	1278	636.308884424627	2
0	1282	637.45860333779	3
0	1283	638.055996196606	2
0	1285	638.120551463827	1
0	1290	640.638341619983	2
0	1291	640.651643220052	1
0	1296	641.085801618242	2
0	1297	644.516453139631	1
0	1302	647.624886928501	2
0	1303	647.902556852876	1
0	1308	648.27773656648	2
0	1309	649.379280866461	1
0	1314	655.847412751712	2
0	1318	657.211265446165	3
0	1319	657.642728423796	2
0	1321	657.646147034769	1
0	1323	658.133972027421	0
0	1328	659.889834317357	1
0	1329	662.94283157359	0
0	1334	664.206519983475	1
0	1335	664.310707965554	0
0	1340	668.742521465478	1
0	1341	670.877054200092	0
0	1346	672.230817973772	1
0	1350	674.79614375193	2
0	1354	675.943991781803	3
0	1355	676.513761442744	2
0	1357	677.45804536027	1
0	1359	677.843565774226	0
0	1364	678.334168120561	1
0	1368	680.015776474105	2
0	1372	683.651690106805	3
0	1373	683.873943816175	2
0	1375	685.833285246233	1
0	1377	686.108708288617	0
0	1382	687.399602737248	1
0	1383	687.631094225744	0
0	1388	692.959510140936	1
0	1392	696.264475280913	2
0	1393	697.045367688262	1
0	1398	697.421964438927	2
0	1399	697.516189922357	1
0	1404	700.18256399763	2
0	1405	703.050636272858	1
0	1407	703.266080908567	0
0	1412	706.19502316787	1
0	1416	706.407256363967	2
0	1417	707.932254678798	1
0	1419	709.32981299691	0
0	1424	723.145294878887	1
0	1425	723.572485625018	0
0	1430	732.304649859245	1
0	1431	733.766210902963	0
0	1436	736.699274152089	1
0	1440	740.082303934431	2
0	1441	742.411869819206	1
0	1446	743.537888176172	2
0	1450	744.400134666334	3
0	1451	745.10026647285	2
0	1453	745.222318913717	1
0	1455	745.861951044947	0
0	1460	747.12034641812	1
0	1461	749.954690044889	0
0	1466	754.141798714901	1
0	1467	754.783567026816	0
0	1472	758.141190224882	1
0	1476	760.167601807068	2
0	1477	761.11284778134	1
0	1482	766.420267204695	2
0	1486	767.535061659814	3
0	1487	767.734020964915	2
0	1489	769.020068716314	1
0	1494	769.273236115199	2
0	1495	771.994536842177	1
0	1500	772.469430323457	2
0	1501	772.849627802687	1
0	1506	774.175216022661	2
0	1507	776.824350300996	1
0	1509	776.84330475847	0
0	1514	777.703471880661	1
0	1518	777.955387387142	2
0	1519	778.086830957491	1
0	1524	780.024527344113	2
0	1525	781.279827545103	1
0	1530	782.566027237981	2
0	1531	783.119722509806	1
0	1536	783.241592391543	2
0	1540	786.18923265387	3
0	1541	787.823714625868	2
0	1543	788.374611464946	1
0	1548	789.246751966952	2
0	1549	789.300469507883	1
0	1551	791.482552758951	0
0	1556	808.127560959361	1
0	1557	809.388629167555	0
0	1562	811.136858004167	1
0	1563	813.690151184058	0
0	1568	814.88107652159	1
0	1572	815.346274578636	2
0	1576	816.549041897423	3
0	1577	816.740105819407	2
0	1579	817.092364842758	1
0	1584	817.223648168043	2
0	1588	817.465448833504	3
0	1589	818.406856230493	2
0	1594	820.806339618502	3
0	1595	821.133160004328	2
0	1597	821.611097760847	1
0	1599	822.189219198785	0
0	1604	823.348219556052	1
0	1605	823.692706703536	0
0	1610	824.46798519366	1
0	1611	826.21278619908	0
0	1616	829.295346657634	1
0	1620	829.76968133591	2
0	1621	830.091955721579	1
0	1623	832.472228500302	0
0	1628	833.200569731274	1
0	1629	841.072147426681	0
0	1634	842.490931405061	1
0	1635	842.803680246392	0
0	1640	851.713366257932	1
0	1641	851.95040529773	0
0	1646	853.60479283888	1
0	1647	853.870448325737	0
0	1652	856.476686202559	1
0	1656	857.630263184404	2
0	1657	857.857365823119	1
0	1659	857.947146852969	0
0	1664	857.983371000142	1
0	1665	858.245069882564	0
0	1670	867.400799411822	1
0	1674	868.227152786038	2
0	1678	868.766692507142	3
0	1679	870.160666955573	2
0	1681	870.542488863752	1
0	1683	870.87826818981	0
0	1688	872.92835611938	1
0	1692	873.389431862729	2
0	1693	873.689016492525	1
0	1698	874.571020061839	2
0	1699	875.950949268021	1
0	1704	877.14046675337	2
0	1705	877.308571699885	1
0	1710	877.949362084343	2
0	1714	881.369780081505	3
0	1718	883.328903056772	4
0	1719	883.923188513169	3
0	1721	884.178716379135	2
0	1726	887.83761141089	3
0	1727	887.848073349004	2
0	1729	888.550239425185	1
0	1734	889.821393531061	2
0	1735	891.399871347365	1
0	1740	898.530422221152	2
0	1741	898.988417441529	1
0	1746	903.112604374692	2
0	1747	903.380629565	1
0	1752	906.043325398359	2
0	1753	906.985422133451	1
0	1755	908.175706793751	0
0	1760	912.839713444055	1
0	1761	915.320826311776	0
0	1766	915.787204936761	1
0	1767	915.893773461486	0
0	1772	917.503157531547	1
0	1776	918.435292904997	2
0	1777	918.69993233831	1
0	1779	920.240872242122	0
0	1784	926.332136721386	1
0	1788	926.81730071905	2
0	1789	926.917930793087	1
0	1791	927.829071285185	0
0	1796	935.572694513924	1
0	1797	938.274928877919	0
0	1802	939.289393396593	1
0	1806	941.897719374328	2
0	1810	943.137054781998	3
0	1811	943.469468223042	2
0	1813	945.569963629696	1
0	1818	946.182451257765	2
0	1819	946.467344294871	1
0	1821	947.794418711268	0
0	1826	948.935429377052	1
0	1830	949.027828752583	2
0	1834	949.529951879128	3
0	1835	950.82716421074	2
0	1837	950.861575065056	1
0	1839	951.724616435287	0
0	1844	952.862759219945	1
0	1848	954.453440187049	2
0	1849	958.712746138821	1
0	1851	959.353993769918	0
0	1856	961.991863133638	1
0	1857	963.102282016065	0
0	1862	963.722098542771	1
0	1863	964.378588188405	0
0	1868	966.417735831856	1
0	1872	968.333820590162	2
0	1873	968.884164651372	1
0	1878	969.054582219773	2
0	1879	969.276484775723	1
0	1884	974.929684672444	2
0	1888	978.087396680337	3
0	1889	978.19640363704	2
0	1891	978.804285350241	1
0	1896	979.137595108966	2
0	1897	979.398770971868	1
0	1902	981.48058331123	2
0	1906	985.663498596749	3
0	1907	985.801805743737	2
0	1909	987.136592976043	1
0	1911	989.055798439503	0
0	1916	990.700407671644	1
0	1917	990.977019646454	0
0	1922	999.828182661364	1
1	232	100.681279042502	17
1	234	102.608250009427	16
1	238	103.24555267012	15
1	242	104.364247285109	16
1	244	104.78385745018	17
1	246	106.875522495491	16
1	250	107.015733171631	17
1	252	114.918531668266	16
1	256	116.645587781724	17
1	258	117.025609425983	16
1	262	117.328004276211	17
1	264	121.647580553093	16
1	268	121.786372469045	17
1	270	123.687478419059	16
1	274	125.784228028313	15
1	278	127.15139551648	16
1	280	129.284770649222	15
1	284	129.686075242374	16
1	286	131.135486294257	15
1	290	131.45944645173	16
1	292	131.550046665804	17
1	294	134.349874418637	16
1	298	136.271880195925	17
1	300	139.404756400626	16
1	304	140.065045411685	17
1	306	142.88242304953	16
1	310	143.734445535902	15
1	314	145.817877829108	14
1	318	146.53944346727	15
1	320	147.447016696539	16
1	322	147.576142673822	17
1	324	149.113304295613	16
1	328	149.178914054986	15
1	332	152.881750417459	16
1	334	153.768853393712	15
1	338	154.509358423779	16
1	340	160.511975590559	15
1	344	161.061899575776	16
1	346	161.17030963005	17
1	348	162.056657949023	16
1	352	164.378203849973	17
1	354	167.61660822914	16
1	358	168.744709257268	17
1	360	171.481772228147	16
1	364	171.812460473774	15
1	368	172.083073939242	16
1	370	176.314309676418	15
1	374	177.445266387523	16
1	376	177.680119317063	15
1	380	178.422187387923	16
1	382	178.757284623605	17
1	384	181.391846453062	16
1	388	185.394845286814	17
1	390	186.696180582544	16
1	394	189.600377791152	15
1	398	190.844576183429	14
1	402	191.430931645545	15
1	404	191.986402828295	16
1	406	193.355808631914	15
1	410	193.694733367743	16
1	412	199.221183121551	17
1	414	199.422182054224	16
1	418	199.438765045995	17
1	420	201.763705107076	16
1	424	203.09153906758	17
1	426	203.303691891475	16
1	430	206.697687435265	15
1	434	208.327809276601	14
1	438	208.397765660962	15
1	440	212.485992689576	16
1	442	213.535120633051	15
1	446	213.898802729965	14
1	450	213.985979327295	13
1	454	214.436593024019	14
1	456	215.228079986262	15
1	458	216.504887762008	16
1	460	216.888652720655	17
1	462	224.167202024798	16
1	466	224.998904376954	17
1	468	232.90434377564	16
1	472	233.373912209372	15
1	476	233.4197562448	16
1	478	233.865205604457	15
1	482	235.474807172461	16
1	484	236.409666294105	17
1	486	238.833523581124	16
1	490	240.546444498726	15
1	494	240.737889057379	16
1	496	241.14888352398	15
1	500	242.322468019003	16
1	502	242.67529413454	17
1	504	243.01018515787	16
1	508	245.203902823315	15
1	512	245.583136879883	14
1	516	245.861491102757	13
1	520	246.074300098827	14
1	522	248.095920867849	13
1	526	248.886677856784	14
1	528	249.537999012297	15
1	530	249.591807578156	14
1	534	249.684588402325	15
1	536	249.982464505228	14
1	540	250.479142188274	13
1	544	251.526551302372	14
1	546	251.680198798253	15
1	548	253.195262971813	16
1	550	253.407058084249	15
1	554	255.526031769853	16
1	556	264.116403216856	15
1	560	269.93246489838	14
1	564	271.67622456256	15
1	566	272.209771114187	16
1	568	272.370085765552	17
1	570	274.88031959306	16
1	574	275.549857705624	17
1	576	277.004430424128	16
1	580	277.443930638507	15
1	584	279.975472445588	14
1	588	280.154572374167	15
1	590	281.891111780851	16
1	592	282.389590571317	17
1	594	284.223899821221	16
1	598	288.425218522041	15
1	602	288.910218192783	16
1	604	290.191139240406	15
1	608	290.218956874012	16
1	610	293.073815412217	15
1	614	293.593550968951	14
1	618	293.930223059535	13
1	622	294.238907381279	12
1	626	294.272099068446	13
1	628	294.424027239003	14
1	630	295.906813502234	15
1	632	297.008158629268	16
1	634	300.101841269421	17
1	636	303.527997565176	16
1	640	303.885848340797	15
1	644	303.97330879465	16
1	646	305.733960583755	15
1	650	308.876742871577	16
1	652	309.389155894675	17
1	654	310.662013987205	16
1	658	311.546100343464	15
1	662	313.058331604505	16
1	664	314.981047589455	17
1	666	315.518741047912	16
1	670	315.927704746438	15
1	674	316.163658115462	16
1	676	316.482803548076	17
1	678	319.108596624986	16
1	682	319.35461720843	15
1	686	321.160149307446	14
1	690	322.508431630148	13
1	694	323.293103114154	14
1	696	323.440441968132	15
1	698	325.716702828987	16
1	700	327.706407534024	17
1	702	332.313721367732	16
1	706	332.846246393508	15
1	710	334.558966261988	16
1	712	335.584041175024	17
1	714	336.368061316649	16
1	718	336.85981779701	15
1	722	337.965767037342	14
1	726	338.071141239077	15
1	728	338.536830684793	16
1	730	339.359791836513	17
1	732	341.995908234199	16
1	736	342.589992183371	15
1	740	342.694179533394	14
1	744	343.882689078508	15
1	746	345.016609257257	16
1	748	347.725175737156	15
1	752	347.747485081638	16
1	754	348.172153606779	17
1	756	353.643230953431	16
1	760	353.79381412652	17
1	762	355.323365018293	16
1	766	356.788202631227	15
1	770	357.503365818634	16
1	772	358.407008501962	15
1	776	359.417347372389	14
1	780	360.940115732355	15
1	782	362.278223653927	16
1	784	363.446096807353	17
1	786	364.438466557932	16
1	790	368.434802671473	17
1	792	369.173619221257	16
1	796	372.332852949138	17
1	798	374.055948105553	16
1	802	375.273458958085	15
1	806	375.783598336904	14
1	810	375.896990875	15
1	812	377.053478349817	14
1	816	377.421935716958	15
1	818	378.130056403028	16
1	820	378.211590130437	15
1	824	378.968026439262	14
1	828	380.104718813587	13
1	832	380.77125583817	14
1	834	381.456002338637	13
1	838	381.828162976502	14
1	840	382.448818188051	15
1	842	382.888860368429	16
1	844	384.434612316664	15
1	848	385.792537553865	14
1	852	385.901277588374	13
1	856	386.51634353069	14
1	858	387.434826390647	15
1	860	387.827005528412	14
1	864	389.043371420711	15
1	866	389.667749796274	16
1	868	390.873842266135	15
1	872	390.88652402715	16
1	874	391.653907037032	17
1	876	402.419890597383	16
1	880	402.495865667213	15
1	884	402.65825159509	14
1	888	402.739492435866	15
1	890	404.638260578723	16
1	892	407.848084184014	17
1	894	409.22989401133	16
1	898	409.733790002483	17
1	900	414.958842689682	16
1	904	415.355371620535	15
1	908	415.445097949988	14
1	912	415.455978607828	13
1	916	415.463051841355	14
1	918	415.702478653418	15
1	920	416.519011790195	14
1	924	417.358575009212	15
1	926	418.847651900209	16
1	928	422.139053265403	17
1	930	426.88746731261	16
1	934	427.070814246329	15
1	938	427.230902964387	16
1	940	428.709509914498	15
1	944	430.451163980837	16
1	946	437.078459902471	17
1	948	444.926641353761	16
1	952	446.02843938792	15
1	956	446.617650902122	16
1	958	456.708694346174	17
1	960	461.933751012809	16
1	964	462.035467122499	15
1	968	463.350938319817	16
1	970	464.627163176722	17
1	972	467.943289414835	16
1	976	468.916538384638	17
1	978	473.015273994793	16
1	982	473.606661279684	17
1	984	482.444775223869	16
1	988	484.594970267212	17
1	990	484.602356220707	16
1	994	488.261256484996	15
1	998	490.391082870656	16
1	1000	493.816809721743	15
1	1004	494.267522083066	14
1	1008	494.868612653612	13
1	1012	494.891807962704	14
1	1014	495.002090954848	15
1	1016	495.063568089786	16
1	1018	497.434890009481	15
1	1022	499.599714465421	14
1	1026	499.857813011971	15
1	1028	501.582776574657	16
1	1030	502.358001516155	15
1	1034	502.979792861351	16
1	1036	503.236583282203	15
1	1040	503.272288827923	14
1	1044	504.159147014659	13
1	1048	504.180567090418	14
1	1050	504.80884489219	15
1	1052	508.223451010936	14
1	1056	508.240962825204	15
1	1058	513.030111446904	16
1	1060	518.691524316047	15
1	1064	518.885903334026	16
1	1066	520.216869592557	15
1	1070	520.467730986323	14
1	1074	520.726955464474	15
1	1076	521.355404822393	16
1	1078	522.999828016777	17
1	1080	529.069427853685	16
1	1084	531.370590105195	15
1	1088	532.246059295273	16
1	1090	533.174987337222	17
1	1092	536.179633732213	16
1	1096	537.476132770909	17
1	1098	545.252357624627	16
1	1102	545.869753494788	15
1	1106	548.455406975068	16
1	1108	551.268596765599	17
1	1110	557.563910170823	16
1	1114	558.179966160082	15
1	1118	559.559552869283	14
1	1122	559.741959598811	15
1	1124	560.390324980162	14
1	1128	561.400284070098	15
1	1130	561.863983477241	16
1	1132	561.923406166748	15
1	1136	563.080764304579	14
1	1140	563.253405779878	13
1	1144	563.683411628981	14
1	1146	564.053761799184	15
1	1148	565.191030396396	16
1	1150	567.741622931014	15
1	1154	568.897066809438	16
1	1156	573.121770268574	17
1	1158	573.211287490721	16
1	1162	575.084008286725	17
1	1164	575.818127010233	16
1	1168	576.582815038118	17
1	1170	581.199112350098	16
1	1174	581.217165071167	17
1	1176	586.419848782015	16
1	1180	588.211690481992	15
1	1184	588.753332168099	16
1	1186	590.346831382166	17
1	1188	591.039677714785	16
1	1192	591.183208064593	17
1	1194	591.981919111523	16
1	1198	594.50849875109	17
1	1200	595.003805469139	16
1	1204	596.358942218244	15
1	1208	600.53609998607	14
1	1212	601.30357905461	15
1	1214	602.91454248488	14
1	1218	603.212810326736	15
1	1220	603.561527229658	14
1	1224	606.555725600879	13
1	1228	606.872747113147	14
1	1230	607.582387015721	15
1	1232	608.068571422822	16
1	1234	608.339167604392	17
1	1236	614.357342481586	16
1	1240	614.917359417347	15
1	1244	615.866500447776	16
1	1246	617.902472357306	17
1	1248	621.588148446855	16
1	1252	621.899677170647	17
1	1254	622.840456281623	16
1	1258	623.475537740661	17
1	1260	624.969806973854	16
1	1264	625.238122673939	17
1	1266	629.698404818094	16
1	1270	630.619555148879	15
1	1274	635.557307823304	16
1	1276	636.308884424627	15
1	1280	637.45860333779	14
1	1284	638.055996196606	15
1	1286	638.120551463827	16
1	1288	640.638341619983	15
1	1292	640.651643220052	16
1	1294	641.085801618242	15
1	1298	644.516453139631	16
1	1300	647.624886928501	15
1	1304	647.902556852876	16
1	1306	648.27773656648	15
1	1310	649.379280866461	16
1	1312	655.847412751712	15
1	1316	657.211265446165	14
1	1320	657.642728423796	15
1	1322	657.646147034769	16
1	1324	658.133972027421	17
1	1326	659.889834317357	16
1	1330	662.94283157359	17
1	1332	664.206519983475	16
1	1336	664.310707965554	17
1	1338	668.742521465478	16
1	1342	670.877054200092	17
1	1344	672.230817973772	16
1	1348	674.79614375193	15
1	1352	675.943991781803	14
1	1356	676.513761442744	15
1	1358	677.45804536027	16
1	1360	677.843565774226	17
1	1362	678.334168120561	16
1	1366	680.015776474105	15
1	1370	683.651690106805	14
1	1374	683.873943816175	15
1	1376	685.833285246233	16
1	1378	686.108708288617	17
1	1380	687.399602737248	16
1	1384	687.631094225744	17
1	1386	692.959510140936	16
1	1390	696.264475280913	15
1	1394	697.045367688262	16
1	1396	697.421964438927	15
1	1400	697.516189922357	16
1	1402	700.18256399763	15
1	1406	703.050636272858	16
1	1408	703.266080908567	17
1	1410	706.19502316787	16
1	1414	706.407256363967	15
1	1418	707.932254678798	16
1	1420	709.32981299691	17
1	1422	723.145294878887	16
1	1426	723.572485625018	17
1	1428	732.304649859245	16
1	1432	733.766210902963	17
1	1434	736.699274152089	16
1	1438	740.082303934431	15
1	1442	742.411869819206	16
1	1444	743.537888176172	15
1	1448	744.400134666334	14
1	1452	745.10026647285	15
1	1454	745.222318913717	16
1	1456	745.861951044947	17
1	1458	747.12034641812	16
1	1462	749.954690044889	17
1	1464	754.141798714901	16
1	1468	754.783567026816	17
1	1470	758.141190224882	16
1	1474	760.167601807068	15
1	1478	761.11284778134	16
1	1480	766.420267204695	15
1	1484	767.535061659814	14
1	1488	767.734020964915	15
1	1490	769.020068716314	16
1	1492	769.273236115199	15
1	1496	771.994536842177	16
1	1498	772.469430323457	15
1	1502	772.849627802687	16
1	1504	774.175216022661	15
1	1508	776.824350300996	16
1	1510	776.84330475847	17
1	1512	777.703471880661	16
1	1516	777.955387387142	15
1	1520	778.086830957491	16
1	1522	780.024527344113	15
1	1526	781.279827545103	16
1	1528	782.566027237981	15
1	1532	783.119722509806	16
1	1534	783.241592391543	15
1	1538	786.18923265387	14
1	1542	787.823714625868	15
1	1544	788.374611464946	16
1	1546	789.246751966952	15
1	1550	789.300469507883	16
1	1552	791.482552758951	17
1	1554	808.127560959361	16
1	1558	809.388629167555	17
1	1560	811.136858004167	16
1	1564	813.690151184058	17
1	1566	814.88107652159	16
1	1570	815.346274578636	15
1	1574	816.549041897423	14
1	1578	816.740105819407	15
1	1580	817.092364842758	16
1	1582	817.223648168043	15
1	1586	817.465448833504	14
1	1590	818.406856230493	15
1	1592	820.806339618502	14
1	1596	821.133160004328	15
1	1598	821.611097760847	16
1	1600	822.189219198785	17
1	1602	823.348219556052	16
1	1606	823.692706703536	17
1	1608	824.46798519366	16
1	1612	826.21278619908	17
1	1614	829.295346657634	16
1	1618	829.76968133591	15
1	1622	830.091955721579	16
1	1624	832.472228500302	17
1	1626	833.200569731274	16
1	1630	841.072147426681	17
1	1632	842.490931405061	16
1	1636	842.803680246392	17
1	1638	851.713366257932	16
1	1642	851.95040529773	17
1	1644	853.60479283888	16
1	1648	853.870448325737	17
1	1650	856.476686202559	16
1	1654	857.630263184404	15
1	1658	857.857365823119	16
1	1660	857.947146852969	17
1	1662	857.983371000142	16
1	1666	858.245069882564	17
1	1668	867.400799411822	16
1	1672	868.227152786038	15
1	1676	868.766692507142	14
1	1680	870.160666955573	15
1	1682	870.542488863752	16
1	1684	870.87826818981	17
1	1686	872.92835611938	16
1	1690	873.389431862729	15
1	1694	873.689016492525	16
1	1696	874.571020061839	15
1	1700	875.950949268021	16
1	1702	877.14046675337	15
1	1706	877.308571699885	16
1	1708	877.949362084343	15
1	1712	881.369780081505	14
1	1716	883.328903056772	13
1	1720	883.923188513169	14
1	1722	884.178716379135	15
1	1724	887.83761141089	14
1	1728	887.848073349004	15
1	1730	888.550239425185	16
1	1732	889.821393531061	15
1	1736	891.399871347365	16
1	1738	898.530422221152	15
1	1742	898.988417441529	16
1	1744	903.112604374692	15
1	1748	903.380629565	16
1	1750	906.043325398359	15
1	1754	906.985422133451	16
1	1756	908.175706793751	17
1	1758	912.839713444055	16
1	1762	915.320826311776	17
1	1764	915.787204936761	16
1	1768	915.893773461486	17
1	1770	917.503157531547	16
1	1774	918.435292904997	15
1	1778	918.69993233831	16
1	1780	920.240872242122	17
1	1782	926.332136721386	16
1	1786	926.81730071905	15
1	1790	926.917930793087	16
1	1792	927.829071285185	17
1	1794	935.572694513924	16
1	1798	938.274928877919	17
1	1800	939.289393396593	16
1	1804	941.897719374328	15
1	1808	943.137054781998	14
1	1812	943.469468223042	15
1	1814	945.569963629696	16