version 3
run General-1-20221103-10:28:21-6760
attr configname General
attr datetime 20221103-10:28:21
attr datetimef 20221103-102821
attr experiment General
attr inifile block.ini
attr iterationvars "$0=2, $1=10"
attr iterationvarsd 2/10
attr iterationvarsf 2,10-
attr measurement "$0=2, $1=10"
attr network Block
attr processid 6760
attr repetition 1
attr replication #1
attr resultdir results
attr runnumber 1
attr seedset 1
config network Block
config repeat 5
config sim-time-limit 1000s
config warmup-period 100s
config **.alloca.resourceModuleName "\"risorse\""
config **.dealloca.resourceModuleName "\"risorse\""
config **.is.delay exponential(3s)
config **.servente.serviceTime exponential(2s)
config **.dealloca.resourceAmount 2
config **.alloca.resourceAmount 2
config **.risorse.amount 6
config **.sorgente.numJobs (10)
config **.result-recording-modes all

vector 0 Block.servente queueLength:vector ETV
attr interpolationmode sample-hold
attr recordingmode vector
attr title "queue length"
vector 1 Block.servente queueingTime:vector ETV
attr interpolationmode none
attr recordingmode vector
attr title "queueing time at dequeue"
attr unit s
vector 2 Block.alloca queueLength:vector ETV
attr interpolationmode sample-hold
attr recordingmode vector
attr title "queue length"
vector 3 Block.alloca queueingTime:vector ETV
attr interpolationmode none
attr recordingmode vector
attr title "queueing time at dequeue"
attr unit s
vector 4 Block.risorse amount:vector ETV
attr interpolationmode sample-hold
attr recordingmode vector
attr title "available resource"
vector 5 Block.is delayedJobs:vector ETV
attr interpolationmode sample-hold
attr recordingmode vector
attr title "number of delayed jobs"
0	353	103.599411725005	1
0	355	103.599411725005	2
0	357	104.204269557949	1
0	359	104.204269557949	2
0	363	104.729638285107	1
0	365	104.729638285107	2
0	367	106.254411991001	1
0	369	106.254411991001	2
0	377	112.2434034115	1
0	379	112.2434034115	2
0	381	113.602127058883	1
0	383	113.602127058883	2
0	389	115.157797249884	1
0	391	115.157797249884	2
0	395	118.058269618627	1
0	397	118.058269618627	2
0	399	118.151081658185	1
0	401	118.151081658185	2
0	403	118.452648649078	1
0	405	118.452648649078	2
0	411	121.596967386682	1
0	413	121.596967386682	2
0	415	121.657476276775	1
0	417	121.657476276775	2
0	421	125.950784930549	1
0	423	125.950784930549	2
0	429	127.507272368865	1
0	431	127.507272368865	2
0	437	128.695615034636	1
0	439	128.695615034636	2
0	441	133.149380806563	1
0	443	133.149380806563	2
0	447	134.097675114718	1
0	449	134.097675114718	2
0	455	135.643895241161	1
0	457	135.643895241161	2
0	459	137.756719268303	1
0	461	137.756719268303	2
0	463	138.653238059197	1
0	465	138.653238059197	2
0	469	140.345874696302	1
0	471	140.345874696302	2
0	473	142.377193601731	1
0	475	142.377193601731	2
0	477	142.647264089225	1
0	479	142.647264089225	2
0	487	144.99095042106	1
0	489	144.99095042106	2
0	493	147.077775246998	1
0	495	147.077775246998	2
0	497	147.951498235967	1
0	499	147.951498235967	2
0	509	150.832856206922	1
0	511	150.832856206922	2
0	513	151.714621289415	1
0	515	151.714621289415	2
0	519	154.509642144541	1
0	521	154.509642144541	2
0	525	158.772659008061	1
0	527	158.772659008061	2
0	529	158.796134635498	1
0	531	158.796134635498	2
0	533	160.174879540814	1
0	535	160.174879540814	2
0	537	160.32819245965	1
0	539	160.32819245965	2
0	547	163.420663094091	1
0	549	163.420663094091	2
0	551	163.553086565282	1
0	553	163.553086565282	2
0	555	164.431059087869	1
0	557	164.431059087869	2
0	569	170.120069023679	1
0	571	170.120069023679	2
0	575	171.075506178223	1
0	577	171.075506178223	2
0	579	173.954222029076	1
0	581	173.954222029076	2
0	585	176.907491808839	1
0	587	176.907491808839	2
0	591	177.624732623407	1
0	593	177.624732623407	2
0	599	180.588046169408	1
0	601	180.588046169408	2
0	603	180.919989636429	1
0	605	180.919989636429	2
0	609	182.648496241949	1
0	611	182.648496241949	2
0	613	182.666593867509	1
0	615	182.666593867509	2
0	621	185.135750162366	1
0	623	185.135750162366	2
0	625	186.407926302652	1
0	627	186.407926302652	2
0	631	189.300801349492	1
0	633	189.300801349492	2
0	639	190.560743093208	1
0	641	190.560743093208	2
0	643	191.187429603598	1
0	645	191.187429603598	2
0	651	194.751355897494	1
0	653	194.751355897494	2
0	655	196.354268592186	1
0	657	196.354268592186	2
0	659	196.499585243059	1
0	661	196.499585243059	2
0	667	197.778703442808	1
0	669	197.778703442808	2
0	673	200.4942325285	1
0	675	200.4942325285	2
0	677	200.920510249784	1
0	679	200.920510249784	2
0	683	202.168915165029	1
0	685	202.168915165029	2
0	687	202.692587263791	1
0	689	202.692587263791	2
0	693	204.112146892147	1
0	695	204.112146892147	2
0	697	204.579970303516	1
0	699	204.579970303516	2
0	701	204.681092682585	1
0	703	204.681092682585	2
0	709	206.144294460138	1
0	711	206.144294460138	2
0	717	206.522451182208	1
0	719	206.522451182208	2
0	725	207.531850991742	1
0	727	207.531850991742	2
0	731	207.759006715098	1
0	733	207.759006715098	2
0	739	209.184932266002	1
0	741	209.184932266002	2
0	743	209.400403895826	1
0	745	209.400403895826	2
0	747	210.081776031947	1
0	749	210.081776031947	2
0	751	210.60907822102	1
0	753	210.60907822102	2
0	767	217.472469275297	1
0	769	217.472469275297	2
0	773	218.124812971163	1
0	775	218.124812971163	2
0	777	218.65697386499	1
0	779	218.65697386499	2
0	781	218.849018900652	1
0	783	218.849018900652	2
0	787	220.53726910178	1
0	789	220.53726910178	2
0	793	221.619586334405	1
0	795	221.619586334405	2
0	799	222.536822091219	1
0	801	222.536822091219	2
0	805	225.89006163693	1
0	807	225.89006163693	2
0	809	226.574366317516	1
0	811	226.574366317516	2
0	817	229.101752502009	1
0	819	229.101752502009	2
0	825	231.00014542474	1
0	827	231.00014542474	2
0	831	232.113569822448	1
0	833	232.113569822448	2
0	835	234.90119870944	1
0	837	234.90119870944	2
0	839	236.017776270239	1
0	841	236.017776270239	2
0	849	237.136346388766	1
0	851	237.136346388766	2
0	857	238.034880871208	1
0	859	238.034880871208	2
0	861	238.36778945345	1
0	863	238.36778945345	2
0	869	243.903081796815	1
0	871	243.903081796815	2
0	875	248.866741528805	1
0	877	248.866741528805	2
0	881	251.912880921073	1
0	883	251.912880921073	2
0	885	253.828820351948	1
0	887	253.828820351948	2
0	889	253.902147149942	1
0	891	253.902147149942	2
0	897	256.026652546092	1
0	899	256.026652546092	2
0	905	256.30464712513	1
0	907	256.30464712513	2
0	909	257.001945801389	1
0	911	257.001945801389	2
0	913	257.8970677376	1
0	915	257.8970677376	2
0	917	258.539256337609	1
0	919	258.539256337609	2
0	923	258.692951468274	1
0	925	258.692951468274	2
0	927	259.023024264956	1
0	929	259.023024264956	2
0	931	259.375588398532	1
0	933	259.375588398532	2
0	945	264.959920968834	1
0	947	264.959920968834	2
0	949	265.887594799125	1
0	951	265.887594799125	2
0	953	265.990219460827	1
0	955	265.990219460827	2
0	961	268.691730737254	1
0	963	268.691730737254	2
0	965	269.401313440564	1
0	967	269.401313440564	2
0	969	269.858525638797	1
0	971	269.858525638797	2
0	983	277.866433293324	1
0	985	277.866433293324	2
0	989	282.33668270254	1
0	991	282.33668270254	2
0	995	285.185496089739	1
0	997	285.185496089739	2
0	1001	287.291553841671	1
0	1003	287.291553841671	2
0	1005	287.372538568411	1
0	1007	287.372538568411	2
0	1013	290.735226777801	1
0	1015	290.735226777801	2
0	1019	293.611018079638	1
0	1021	293.611018079638	2
0	1025	294.825993904074	1
0	1027	294.825993904074	2
0	1029	296.343826325207	1
0	1031	296.343826325207	2
0	1033	296.575402522337	1
0	1035	296.575402522337	2
0	1037	296.891127377149	1
0	1039	296.891127377149	2
0	1043	298.3128893295	1
0	1045	298.3128893295	2
0	1047	298.798689890969	1
0	1049	298.798689890969	2
0	1059	303.763159202815	1
0	1061	303.763159202815	2
0	1065	305.003519690498	1
0	1067	305.003519690498	2
0	1071	305.287262754209	1
0	1073	305.287262754209	2
0	1077	308.177158314665	1
0	1079	308.177158314665	2
0	1083	308.655535729959	1
0	1085	308.655535729959	2
0	1087	308.809856069581	1
0	1089	308.809856069581	2
0	1091	309.010423461722	1
0	1093	309.010423461722	2
0	1099	309.364388359157	1
0	1101	309.364388359157	2
0	1103	310.245941989486	1
0	1105	310.245941989486	2
0	1109	310.446263022455	1
0	1111	310.446263022455	2
0	1113	310.755511622293	1
0	1115	310.755511622293	2
0	1127	316.103183944895	1
0	1129	316.103183944895	2
0	1131	317.821985237188	1
0	1133	317.821985237188	2
0	1137	321.48271821632	1
0	1139	321.48271821632	2
0	1143	323.435288679575	1
0	1145	323.435288679575	2
0	1149	324.21994473793	1
0	1151	324.21994473793	2
0	1155	326.82393675524	1
0	1157	326.82393675524	2
0	1161	328.303310337713	1
0	1163	328.303310337713	2
0	1165	330.973079598399	1
0	1167	330.973079598399	2
0	1171	331.334699668537	1
0	1173	331.334699668537	2
0	1177	333.658176396722	1
0	1179	333.658176396722	2
0	1183	334.771255399389	1
0	1185	334.771255399389	2
0	1189	337.379264534944	1
0	1191	337.379264534944	2
0	1197	340.203189633985	1
0	1199	340.203189633985	2
0	1201	341.216894279385	1
0	1203	341.216894279385	2
0	1209	346.402771954371	1
0	1211	346.402771954371	2
0	1213	346.857854161445	1
0	1215	346.857854161445	2
0	1217	346.873923970092	1
0	1219	346.873923970092	2
0	1227	352.090805553843	1
0	1229	352.090805553843	2
0	1231	352.788535302625	1
0	1233	352.788535302625	2
0	1235	353.153862355253	1
0	1237	353.153862355253	2
0	1239	353.202655999587	1
0	1241	353.202655999587	2
0	1247	354.405621847094	1
0	1249	354.405621847094	2
0	1255	357.709673361773	1
0	1257	357.709673361773	2
0	1259	358.6285980627	1
0	1261	358.6285980627	2
0	1265	360.507752544431	1
0	1267	360.507752544431	2
0	1269	360.578691327209	1
0	1271	360.578691327209	2
0	1279	361.454390778009	1
0	1281	361.454390778009	2
0	1283	361.617939123471	1
0	1285	361.617939123471	2
0	1293	363.980961052735	1
0	1295	363.980961052735	2
0	1297	364.00654938009	1
0	1299	364.00654938009	2
0	1303	365.237238222383	1
0	1305	365.237238222383	2
0	1311	371.741961627099	1
0	1313	371.741961627099	2
0	1317	372.555449139161	1
0	1319	372.555449139161	2
0	1325	373.833083160798	1
0	1327	373.833083160798	2
0	1329	374.055820775548	1
0	1331	374.055820775548	2
0	1337	375.454456776685	1
0	1339	375.454456776685	2
0	1341	379.792136788988	1
0	1343	379.792136788988	2
0	1349	381.320896205692	1
0	1351	381.320896205692	2
0	1353	381.982010679031	1
0	1355	381.982010679031	2
0	1357	382.857733223901	1
0	1359	382.857733223901	2
0	1363	387.389858655158	1
0	1365	387.389858655158	2
0	1367	387.942654970684	1
0	1369	387.942654970684	2
0	1371	387.991002855423	1
0	1373	387.991002855423	2
0	1383	394.737786285149	1
0	1385	394.737786285149	2
0	1389	395.861911480934	1
0	1391	395.861911480934	2
0	1393	396.712089828197	1
0	1395	396.712089828197	2
0	1401	398.433175831067	1
0	1403	398.433175831067	2
0	1405	398.703730023861	1
0	1407	398.703730023861	2
0	1415	404.696927607672	1
0	1417	404.696927607672	2
0	1421	405.449548626485	1
0	1423	405.449548626485	2
0	1427	411.557590665694	1
0	1429	411.557590665694	2
0	1431	412.050397711636	1
0	1433	412.050397711636	2
0	1435	412.622298722945	1
0	1437	412.622298722945	2
0	1443	416.609586917761	1
0	1445	416.609586917761	2
0	1449	417.146047438865	1
0	1451	417.146047438865	2
0	1455	420.521928339658	1
0	1457	420.521928339658	2
0	1461	422.092002614154	1
0	1463	422.092002614154	2
0	1465	422.516558878055	1
0	1467	422.516558878055	2
0	1471	424.294104258757	1
0	1473	424.294104258757	2
0	1475	424.392772153093	1
0	1477	424.392772153093	2
0	1479	424.424772762414	1
0	1481	424.424772762414	2
0	1485	424.52675105439	1
0	1487	424.52675105439	2
0	1491	425.546454222251	1
0	1493	425.546454222251	2
0	1501	427.266766402394	1
0	1503	427.266766402394	2
0	1507	431.309375155276	1
0	1509	431.309375155276	2
0	1515	434.394450491296	1
0	1517	434.394450491296	2
0	1519	434.982394777923	1
0	1521	434.982394777923	2
0	1523	435.154065987496	1
0	1525	435.154065987496	2
0	1527	435.497437019782	1
0	1529	435.497437019782	2
0	1531	435.967598252766	1
0	1533	435.967598252766	2
0	1535	437.048048054584	1
0	1537	437.048048054584	2
0	1541	437.90251884502	1
0	1543	437.90251884502	2
0	1553	440.30969147153	1
0	1555	440.30969147153	2
0	1561	442.701102257517	1
0	1563	442.701102257517	2
0	1565	442.856428441095	1
0	1567	442.856428441095	2
0	1569	442.930731133095	1
0	1571	442.930731133095	2
0	1577	446.046318984867	1
0	1579	446.046318984867	2
0	1587	450.662088148314	1
0	1589	450.662088148314	2
0	1591	450.67143658826	1
0	1593	450.67143658826	2
0	1595	451.285039442126	1
0	1597	451.285039442126	2
0	1603	452.544923430956	1
0	1605	452.544923430956	2
0	1609	453.436923325074	1
0	1611	453.436923325074	2
0	1613	453.9863698159	1
0	1615	453.9863698159	2
0	1621	454.033252504555	1
0	1623	454.033252504555	2
0	1631	455.550408625338	1
0	1633	455.550408625338	2
0	1635	455.829380437733	1
0	1637	455.829380437733	2
0	1639	457.477984191681	1
0	1641	457.477984191681	2
0	1645	457.845423175641	1
0	1647	457.845423175641	2
0	1651	458.938587021915	1
0	1653	458.938587021915	2
0	1659	461.24697174695	1
0	1661	461.24697174695	2
0	1663	461.887107707182	1
0	1665	461.887107707182	2
0	1667	461.907207828111	1
0	1669	461.907207828111	2
0	1671	462.403787750803	1
0	1673	462.403787750803	2
0	1675	462.468743679884	1
0	1677	462.468743679884	2
0	1685	467.931551179998	1
0	1687	467.931551179998	2
0	1695	470.978916007883	1
0	1697	470.978916007883	2
0	1703	472.436854346844	1
0	1705	472.436854346844	2
0	1707	472.470053910136	1
0	1709	472.470053910136	2
0	1711	473.179978800833	1
0	1713	473.179978800833	2
0	1717	474.736167259272	1
0	1719	474.736167259272	2
0	1725	478.666730369183	1
0	1727	478.666730369183	2
0	1729	479.076145217693	1
0	1731	479.076145217693	2
0	1733	479.25063278223	1
0	1735	479.25063278223	2
0	1737	479.341197254847	1
0	1739	479.341197254847	2
0	1743	480.514480636017	1
0	1745	480.514480636017	2
0	1747	480.553496230654	1
0	1749	480.553496230654	2
0	1751	480.692265092942	1
0	1753	480.692265092942	2
0	1769	484.032462495403	1
0	1771	484.032462495403	2
0	1775	486.055262733671	1
0	1777	486.055262733671	2
0	1781	489.019555900346	1
0	1783	489.019555900346	2
0	1787	491.465745798271	1
0	1789	491.465745798271	2
0	1791	492.009916904488	1
0	1793	492.009916904488	2
0	1795	492.100786183058	1
0	1797	492.100786183058	2
0	1801	492.761177430872	1
0	1803	492.761177430872	2
0	1805	496.767466818141	1
0	1807	496.767466818141	2
0	1809	496.919336306664	1
0	1811	496.919336306664	2
0	1817	499.078908915319	1
0	1819	499.078908915319	2
0	1823	499.493888786019	1
0	1825	499.493888786019	2
0	1831	500.971377268143	1
0	1833	500.971377268143	2
0	1841	505.655677664017	1
0	1843	505.655677664017	2
0	1847	506.944973638448	1
0	1849	506.944973638448	2
0	1853	510.699899651417	1
0	1855	510.699899651417	2
0	1859	514.349863090583	1
0	1861	514.349863090583	2
0	1863	514.649835266678	1
0	1865	514.649835266678	2
0	1867	516.204217465152	1
0	1869	516.204217465152	2
0	1873	517.463005332294	1
0	1875	517.463005332294	2
0	1879	517.956553728059	1
0	1881	517.956553728059	2
0	1885	519.119151201339	1
0	1887	519.119151201339	2
0	1889	520.428074357089	1
0	1891	520.428074357089	2
0	1895	521.238857494939	1
0	1897	521.238857494939	2
0	1899	521.256762765916	1
0	1901	521.256762765916	2
0	1911	522.66503314549	1
0	1913	522.66503314549	2
0	1917	524.901524353999	1
0	1919	524.901524353999	2
0	1921	525.015637402246	1
0	1923	525.015637402246	2
0	1925	525.358589673261	1
0	1927	525.358589673261	2
0	1933	527.216851484464	1
0	1935	527.216851484464	2
0	1941	527.985894783548	1
0	1943	527.985894783548	2
0	1949	532.409868932043	1
0	1951	532.409868932043	2
0	1955	535.534724947034	1
0	1957	535.534724947034	2
0	1959	536.025245663701	1
0	1961	536.025245663701	2
0	1965	536.472055322736	1
0	1967	536.472055322736	2
0	1969	538.753676199848	1
0	1971	538.753676199848	2
0	1977	539.093395656458	1
0	1979	539.093395656458	2
0	1983	540.521569415968	1
0	1985	540.521569415968	2
0	1991	549.378075443746	1
0	1993	549.378075443746	2
0	1995	549.690662507423	1
0	1997	549.690662507423	2
0	1999	549.78967337248	1
0	2001	549.78967337248	2
0	2007	554.376210620529	1
0	2009	554.376210620529	2
0	2015	556.88905701646	1
0	2017	556.88905701646	2
0	2019	557.632134860639	1
0	2021	557.632134860639	2
0	2025	558.630391033827	1
0	2027	558.630391033827	2
0	2029	558.798858737979	1
0	2031	558.798858737979	2
0	2033	559.666962356416	1
0	2035	559.666962356416	2
0	2037	559.668989943631	1
0	2039	559.668989943631	2
0	2043	561.628678647062	1
0	2045	561.628678647062	2
0	2047	562.075644379175	1
0	2049	562.075644379175	2
0	2053	564.037898118693	1
0	2055	564.037898118693	2
0	2061	564.813497739579	1
0	2063	564.813497739579	2
0	2065	564.910446448535	1
0	2067	564.910446448535	2
0	2073	567.480557316496	1
0	2075	567.480557316496	2
0	2087	570.328566394838	1
0	2089	570.328566394838	2
0	2091	571.371343159086	1
0	2093	571.371343159086	2
0	2097	573.808399792077	1
0	2099	573.808399792077	2
0	2103	575.569085207063	1
0	2105	575.569085207063	2
0	2111	582.553376830298	1
0	2113	582.553376830298	2
0	2115	583.277838752457	1
0	2117	583.277838752457	2
0	2121	584.030881008294	1
0	2123	584.030881008294	2
0	2127	584.544440975388	1
0	2129	584.544440975388	2
0	2133	586.775965354607	1
0	2135	586.775965354607	2
0	2139	589.794446939906	1
0	2141	589.794446939906	2
0	2143	591.232040421771	1
0	2145	591.232040421771	2
0	2151	593.142441060706	1
0	2153	593.142441060706	2
0	2155	593.23591406019	1
0	2157	593.23591406019	2
0	2161	594.417454502653	1
0	2163	594.417454502653	2
0	2169	601.302284256672	1
0	2171	601.302284256672	2
0	2173	602.193484883993	1
0	2175	602.193484883993	2
0	2177	603.808501728989	1
0	2179	603.808501728989	2
0	2183	604.868363703475	1
0	2185	604.868363703475	2
0	2193	611.633894123763	1
0	2195	611.633894123763	2
0	2197	612.087840483056	1
0	2199	612.087840483056	2
0	2205	621.962582498454	1
0	2207	621.962582498454	2
0	2209	624.115501262203	1
0	2211	624.115501262203	2
0	2219	627.427273928984	1
0	2221	627.427273928984	2
0	2223	628.652809308128	1
0	2225	628.652809308128	2
0	2231	633.019003939024	1
0	2233	633.019003939024	2
0	2237	634.545861417527	1
0	2239	634.545861417527	2
0	2241	636.267949314764	1
0	2243	636.267949314764	2
0	2249	641.257822003032	1
0	2251	641.257822003032	2
0	2253	642.012004539102	1
0	2255	642.012004539102	2
0	2259	644.602269628217	1
0	2261	644.602269628217	2
0	2263	647.874201396714	1
0	2265	647.874201396714	2
0	2271	649.182296371764	1
0	2273	649.182296371764	2
0	2277	650.519495763587	1
0	2279	650.519495763587	2
0	2285	654.202362592963	1
0	2287	654.202362592963	2
0	2289	655.824096946454	1
0	2291	655.824096946454	2
0	2293	656.4531932333	1
0	2295	656.4531932333	2
0	2301	657.787149282424	1
0	2303	657.787149282424	2
0	2305	658.432651409511	1
0	2307	658.432651409511	2
0	2311	658.943443842558	1
0	2313	658.943443842558	2
0	2317	661.024624518527	1
0	2319	661.024624518527	2
0	2325	666.104623980363	1
0	2327	666.104623980363	2
0	2331	666.5520983383	1
0	2333	666.5520983383	2
0	2339	670.790178653081	1
0	2341	670.790178653081	2
0	2345	672.044177450499	1
0	2347	672.044177450499	2
0	2349	674.626001243903	1
0	2351	674.626001243903	2
0	2353	675.347571777302	1
0	2355	675.347571777302	2
0	2361	676.690371730132	1
0	2363	676.690371730132	2
0	2367	677.145865813687	1
0	2369	677.145865813687	2
0	2371	677.331448293843	1
0	2373	677.331448293843	2
0	2375	677.693747917464	1
0	2377	677.693747917464	2
0	2381	679.092064469478	1
0	2383	679.092064469478	2
0	2391	682.190453617052	1
0	2393	682.190453617052	2
0	2399	686.868990504813	1
0	2401	686.868990504813	2
0	2403	687.364693310953	1
0	2405	687.364693310953	2
0	2407	690.044514867571	1
0	2409	690.044514867571	2
0	2413	690.640795724511	1
0	2415	690.640795724511	2
0	2419	692.301979572129	1
0	2421	692.301979572129	2
0	2423	692.586096885913	1
0	2425	692.586096885913	2
0	2427	693.516806346197	1
0	2429	693.516806346197	2
0	2431	693.689786742682	1
0	2433	693.689786742682	2
0	2443	695.099118155429	1
0	2445	695.099118155429	2
0	2451	697.470119444592	1
0	2453	697.470119444592	2
0	2455	698.69132999173	1
0	2457	698.69132999173	2
0	2463	699.587891645074	1
0	2465	699.587891645074	2
0	2471	702.973612269961	1
0	2473	702.973612269961	2
0	2475	703.06740038526	1
0	2477	703.06740038526	2
0	2479	704.048883676141	1
0	2481	704.048883676141	2
0	2483	705.275793710591	1
0	2485	705.275793710591	2
0	2493	707.937377679587	1
0	2495	707.937377679587	2
0	2499	712.745217309182	1
0	2501	712.745217309182	2
0	2503	713.395031357704	1
0	2505	713.395031357704	2
0	2511	716.799984982629	1
0	2513	716.799984982629	2
0	2517	718.936049461349	1
0	2519	718.936049461349	2
0	2521	718.958738306641	1
0	2523	718.958738306641	2
0	2531	721.617460391834	1
0	2533	721.617460391834	2
0	2537	723.467591868712	1
0	2539	723.467591868712	2
0	2543	725.746580103026	1
0	2545	725.746580103026	2
0	2547	727.500526824411	1
0	2549	727.500526824411	2
0	2555	729.204911028013	1
0	2557	729.204911028013	2
0	2561	730.10066735939	1
0	2563	730.10066735939	2
0	2567	736.474448264475	1
0	2569	736.474448264475	2
0	2573	745.151281514234	1
0	2575	745.151281514234	2
0	2577	746.130504100512	1
0	2579	746.130504100512	2
0	2585	749.748478199746	1
0	2587	749.748478199746	2
0	2591	757.799126078886	1
0	2593	757.799126078886	2
0	2595	759.559781454824	1
0	2597	759.559781454824	2
0	2603	761.782763256752	1
0	2605	761.782763256752	2
0	2607	761.963174116773	1
0	2609	761.963174116773	2
0	2615	771.48695518787	1
0	2617	771.48695518787	2
0	2619	774.51067206194	1
0	2621	774.51067206194	2
0	2627	784.868115829587	1
0	2629	784.868115829587	2
0	2631	786.98895632068	1
0	2633	786.98895632068	2
0	2635	787.065249016736	1
0	2637	787.065249016736	2
0	2643	789.604686352907	1
0	2645	789.604686352907	2
0	2651	791.934934911467	1
0	2653	791.934934911467	2
0	2655	793.812074510655	1
0	2657	793.812074510655	2
0	2661	794.036646248274	1
0	2663	794.036646248274	2
0	2667	794.695557486008	1
0	2669	794.695557486008	2
0	2671	797.689693163834	1
0	2673	797.689693163834	2
0	2677	802.107268988667	1
0	2679	802.107268988667	2
0	2685	803.536416411697	1
0	2687	803.536416411697	2
0	2691	806.05192274574	1
0	2693	806.05192274574	2
0	2695	806.213863247578	1
0	2697	806.213863247578	2
0	2703	808.124468187064	1
0	2705	808.124468187064	2
0	2711	811.762366152069	1
0	2713	811.762366152069	2
0	2715	814.143856794271	1
0	2717	814.143856794271	2
0	2719	815.763485558161	1
0	2721	815.763485558161	2
0	2727	819.712778764617	1
0	2729	819.712778764617	2
0	2731	822.448285484132	1
0	2733	822.448285484132	2
0	2735	823.062829058731	1
0	2737	823.062829058731	2
0	2747	839.810037948927	1
0	2749	839.810037948927	2
0	2753	841.515411551935	1
0	2755	841.515411551935	2
0	2759	843.553492946272	1
0	2761	843.553492946272	2
0	2765	844.899004397017	1
0	2767	844.899004397017	2
0	2769	849.302218198509	1
0	2771	849.302218198509	2
0	2777	853.453280845811	1
0	2779	853.453280845811	2
0	2783	857.218268854588	1
0	2785	857.218268854588	2
0	2787	859.304948669391	1
0	2789	859.304948669391	2
0	2793	861.066692850293	1
0	2795	861.066692850293	2
0	2797	861.728102461424	1
0	2799	861.728102461424	2
0	2805	871.300049206482	1
0	2807	871.300049206482	2
0	2813	874.515539828297	1
0	2815	874.515539828297	2
0	2819	875.908389839647	1
0	2821	875.908389839647	2
0	2823	878.867977132325	1
0	2825	878.867977132325	2
0	2827	879.133394972244	1
0	2829	879.133394972244	2
0	2837	884.210462071142	1
0	2839	884.210462071142	2
0	2841	884.302207755227	1
0	2843	884.302207755227	2
0	2845	884.821316690909	1
0	2847	884.821316690909	2
0	2853	888.517803019597	1
0	2855	888.517803019597	2
0	2857	889.247135495818	1
0	2859	889.247135495818	2
0	2861	890.571679249005	1
0	2863	890.571679249005	2
0	2869	892.671629735786	1
0	2871	892.671629735786	2
0	2875	892.982466009051	1
0	2877	892.982466009051	2
0	2879	893.712451289599	1
0	2881	893.712451289599	2
0	2889	898.071778914248	1
0	2891	898.071778914248	2
0	2897	902.429717991572	1
0	2899	902.429717991572	2
0	2901	903.877824412449	1
0	2903	903.877824412449	2
0	2905	904.499282463857	1
0	2907	904.499282463857	2
0	2915	908.745542244799	1
0	2917	908.745542244799	2
0	2921	910.123786059883	1
0	2923	910.123786059883	2
0	2927	910.935034093991	1
0	2929	910.935034093991	2
0	2933	915.436853401634	1
0	2935	915.436853401634	2
0	2937	915.894379640812	1
0	2939	915.894379640812	2
0	2945	919.319588620443	1
0	2947	919.319588620443	2
0	2949	922.97027719257	1
0	2951	922.97027719257	2
0	2953	924.449899745747	1
0	2955	924.449899745747	2
0	2959	924.803225896835	1
0	2961	924.803225896835	2
0	2969	930.754184055628	1
0	2971	930.754184055628	2
0	2973	930.876763027115	1
0	2975	930.876763027115	2
0	2977	935.228658815871	1
0	2979	935.228658815871	2
0	2981	936.936907402332	1
0	2983	936.936907402332	2
0	2985	937.889262759257	1
0	2987	937.889262759257	2
0	2995	939.93760081363	1
0	2997	939.93760081363	2
0	2999	940.21108991904	1
0	3001	940.21108991904	2
0	3009	941.255209817883	1
0	3011	941.255209817883	2
0	3013	942.136596895298	1
0	3015	942.136596895298	2
0	3019	942.464356695214	1
0	3021	942.464356695214	2
0	3029	946.346821794339	1
0	3031	946.346821794339	2
0	3033	946.562009241866	1
0	3035	946.562009241866	2
0	3041	952.682380349363	1
0	3043	952.682380349363	2
0	3045	953.047376658548	1
0	3047	953.047376658548	2
0	3051	954.204887767226	1
0	3053	954.204887767226	2
0	3055	954.554586188867	1
0	3057	954.554586188867	2
0	3065	958.78301273755	1
0	3067	958.78301273755	2
0	3071	960.08491432288	1
0	3073	960.08491432288	2
0	3077	961.10374555242	1
0	3079	961.10374555242	2
0	3081	961.748210290204	1
0	3083	961.748210290204	2
0	3085	961.854255098435	1
0	3087	961.854255098435	2
0	3091	962.152913854116	1
0	3093	962.152913854116	2
0	3101	965.168829336814	1
0	3103	965.168829336814	2
0	3105	965.560988928285	1
0	3107	965.560988928285	2
0	3111	967.312431415691	1
0	3113	967.312431415691	2
0	3117	972.578052182768	1
0	3119	972.578052182768	2
0	3121	972.805876970858	1
0	3123	972.805876970858	2
0	3125	974.011189867779	1
0	3127	974.011189867779	2
0	3129	974.350377655334	1
0	3131	974.350377655334	2
0	3133	975.075794805065	1
0	3135	975.075794805065	2
0	3143	977.964692408547	1
0	3145	977.964692408547	2
0	3149	979.93662766561	1
0	3151	979.93662766561	2
0	3157	982.419944605724	1
0	3159	982.419944605724	2
0	3163	982.849949593177	1
0	3165	982.849949593177	2
0	3167	982.991719757846	1
0	3169	982.991719757846	2
0	3179	987.226521611067	1
0	3181	987.226521611067	2
0	3183	987.997402242362	1
0	3185	987.997402242362	2
0	3189	989.85251012	1
0	3191	989.85251012	2
0	3193	996.064058552144	1
0	3195	996.064058552144	2
0	3197	997.139055337112	1
0	3199	997.139055337112	2
0	3201	997.575097629593	1
0	3203	997.575097629593	2
0	3205	997.938209680919	1
0	3207	997.938209680919	2
0	3211	999.898839542478	1
0	3213	999.898839542478	2
1	353	103.599411725005	8.175145089573
1	357	104.204269557949	6.876486672081
1	363	104.729638285107	1.130226560102
1	367	106.254411991001	2.050142433052
1	377	112.2434034115	7.513765126393
1	381	113.602127058883	7.347715067882
1	389	115.157797249884	2.914393838384
1	395	118.058269618627	4.456142559744
1	399	118.151081658185	2.993284408301
1	403	118.452648649078	0.394379030451
1	411	121.596967386682	3.445885728497
1	415	121.657476276775	3.204827627697
1	421	125.950784930549	4.353817543867
1	429	127.507272368865	5.84979609209
1	437	128.695615034636	2.744830104087
1	441	133.149380806563	5.642108437698
1	447	134.097675114718	5.402060080082
1	455	135.643895241161	2.494514434598
1	459	137.756719268303	3.659044153585
1	463	138.653238059197	3.009342818036
1	469	140.345874696302	2.589155427999
1	473	142.377193601731	3.723955542534
1	477	142.647264089225	2.301389392923
1	487	144.99095042106	2.613756819329
1	493	147.077775246998	4.430511157773
1	497	147.951498235967	2.960547814907
1	509	150.832856206922	3.755080959924
1	513	151.714621289415	3.763123053448
1	519	154.509642144541	3.676785937619
1	525	158.772659008061	7.058037718646
1	529	158.796134635498	4.286492490957
1	533	160.174879540814	1.402220532753
1	537	160.32819245965	1.532057824152
1	547	163.420663094091	3.245783553277
1	551	163.553086565282	3.224894105632
1	555	164.431059087869	1.010395993778
1	569	170.120069023679	6.566982458397
1	575	171.075506178223	6.644447090354
1	579	173.954222029076	3.834153005397
1	585	176.907491808839	5.831985630616
1	591	177.624732623407	3.670510594331
1	599	180.588046169408	3.680554360569
1	603	180.919989636429	3.295257013022
1	609	182.648496241949	2.060450072541
1	613	182.666593867509	1.74660423108
1	621	185.135750162366	2.487253920417
1	625	186.407926302652	3.741332435143
1	631	189.300801349492	4.165051187126
1	639	190.560743093208	4.152816790556
1	643	191.187429603598	1.886628254106
1	651	194.751355897494	4.190612804286
1	655	196.354268592186	5.166838988588
1	659	196.499585243059	1.748229345565
1	667	197.778703442808	1.424434850622
1	673	200.4942325285	3.994647285441
1	677	200.920510249784	3.141806806976
1	683	202.168915165029	1.674682636529
1	687	202.692587263791	1.772077014007
1	693	204.112146892147	1.943231727118
1	697	204.579970303516	1.887383039725
1	701	204.681092682585	0.568945790438
1	709	206.144294460138	1.564324156622
1	717	206.522451182208	1.841358499623
1	725	207.531850991742	1.387556531604
1	731	207.759006715098	1.23655553289
1	739	209.184932266002	1.65308127426
1	743	209.400403895826	1.641397180728
1	747	210.081776031947	0.896843765945
1	751	210.60907822102	1.208674325194
1	767	217.472469275297	7.39069324335
1	773	218.124812971163	7.515734750143
1	777	218.65697386499	1.184504589693
1	781	218.849018900652	0.724205929489
1	787	220.53726910178	1.88029523679
1	793	221.619586334405	2.770567433753
1	799	222.536822091219	1.999552989439
1	805	225.89006163693	4.270475302525
1	809	226.574366317516	4.037544226297
1	817	229.101752502009	3.211690865079
1	825	231.00014542474	4.425779107224
1	831	232.113569822448	3.011817320439
1	835	234.90119870944	3.9010532847
1	839	236.017776270239	3.904206447791
1	849	237.136346388766	2.235147679326
1	857	238.034880871208	2.017104600969
1	861	238.36778945345	1.231443064684
1	869	243.903081796815	5.868200925607
1	875	248.866741528805	10.498952075355
1	881	251.912880921073	8.009799124258
1	885	253.828820351948	4.962078823143
1	889	253.902147149942	1.989266228869
1	897	256.026652546092	2.197832194144
1	905	256.30464712513	2.402499975188
1	909	257.001945801389	0.975293255297
1	913	257.8970677376	1.59242061247
1	917	258.539256337609	1.53731053622
1	923	258.692951468274	0.795883730674
1	927	259.023024264956	0.483767927347