version 3
run General-16-20221103-10:28:22-6760
attr configname General
attr datetime 20221103-10:28:22
attr datetimef 20221103-102822
attr experiment General
attr inifile block.ini
attr iterationvars "$0=3, $1=10"
attr iterationvarsd 3/10
attr iterationvarsf 3,10-
attr measurement "$0=3, $1=10"
attr network Block
attr processid 6760
attr repetition 1
attr replication #1
attr resultdir results
attr runnumber 16
attr seedset 16
config network Block
config repeat 5
config sim-time-limit 1000s
config warmup-period 100s
config **.alloca.resourceModuleName "\"risorse\""
config **.dealloca.resourceModuleName "\"risorse\""
config **.is.delay exponential(3s)
config **.servente.serviceTime exponential(3s)
config **.dealloca.resourceAmount 2
config **.alloca.resourceAmount 2
config **.risorse.amount 6
config **.sorgente.numJobs (10)
config **.result-recording-modes all

vector 0 Block.is delayedJobs:vector ETV
attr interpolationmode sample-hold
attr recordingmode vector
attr title "number of delayed jobs"
vector 1 Block.alloca queueLength:vector ETV
attr interpolationmode sample-hold
attr recordingmode vector
attr title "queue length"
vector 2 Block.servente queueLength:vector ETV
attr interpolationmode sample-hold
attr recordingmode vector
attr title "queue length"
vector 3 Block.servente queueingTime:vector ETV
attr interpolationmode none
attr recordingmode vector
attr title "queueing time at dequeue"
attr unit s
vector 4 Block.alloca queueingTime:vector ETV
attr interpolationmode none
attr recordingmode vector
attr title "queueing time at dequeue"
attr unit s
vector 5 Block.risorse amount:vector ETV
attr interpolationmode sample-hold
attr recordingmode vector
attr title "available resource"
0	255	101.993410347365	0
0	260	102.026135825706	1
0	261	104.614433704861	0
0	266	106.699129003968	1
0	270	107.221222281304	2
0	271	107.948741749977	1
0	273	108.013960799125	0
0	278	111.788614345025	1
0	282	112.221994737194	2
0	283	112.452963399277	1
0	285	113.172259693317	0
0	290	113.239277107789	1
0	294	117.568122860143	2
0	295	118.29597740078	1
0	300	120.142438681189	2
0	304	120.173455581776	3
0	305	120.229169583231	2
0	307	121.464506829344	1
0	312	124.460096822167	2
0	313	124.53691682876	1
0	318	124.557922334438	2
0	319	125.343596473543	1
0	321	127.337615341744	0
0	326	127.602530951001	1
0	330	130.900793915617	2
0	331	131.671010773775	1
0	336	132.391631082018	2
0	337	133.533808924379	1
0	339	134.02634829191	0
0	344	134.815879211347	1
0	348	137.732567550422	2
0	349	138.521782902342	1
0	354	141.495836983181	2
0	355	146.478648293061	1
0	357	148.464100827914	0
0	362	163.355907954603	1
0	363	165.045714982481	0
0	368	173.253285450697	1
0	372	177.605762991539	2
0	373	177.752571516636	1
0	378	181.291729372419	2
0	379	182.744218944777	1
0	381	185.25079853145	0
0	386	186.50172696528	1
0	390	188.216803865836	2
0	391	189.879675366404	1
0	393	190.462816326747	0
0	398	191.913674095312	1
0	402	192.839739194029	2
0	403	194.424639783504	1
0	408	195.550012428506	2
0	409	196.690359611855	1
0	411	198.992821510602	0
0	416	200.733747592147	1
0	420	205.336321711999	2
0	421	205.492562719155	1
0	423	205.695530183064	0
0	428	216.118935566337	1
0	429	216.785227708965	0
0	434	218.904771988728	1
0	435	222.737837046611	0
0	440	233.599818990934	1
0	444	233.835113985907	2
0	448	234.347795820354	3
0	449	234.847538581992	2
0	454	234.933060313455	3
0	455	235.077959887117	2
0	457	235.101788122141	1
0	459	235.251055836136	0
0	464	236.252923646547	1
0	465	237.821856679784	0
0	470	240.259231827545	1
0	474	241.87619612826	2
0	478	242.766400411507	3
0	479	242.882630896088	2
0	484	244.331318139534	3
0	485	245.92574232726	2
0	490	248.18578700588	3
0	491	248.895401619388	2
0	496	249.263583358022	3
0	497	250.009806336034	2
0	499	250.798175990858	1
0	501	254.522291471888	0
0	506	254.799504482138	1
0	510	255.374248077366	2
0	514	255.614845844388	3
0	515	255.864988317262	2
0	520	256.012663156351	3
0	524	259.403167459837	4
0	525	259.615448290508	3
0	527	260.371718398585	2
0	529	260.661317349448	1
0	531	262.833393005472	0
0	536	266.016893620899	1
0	540	266.467357349114	2
0	541	268.811308630385	1
0	546	269.36143994625	2
0	547	269.684672191287	1
0	552	270.871421888311	2
0	556	272.689164517097	3
0	557	274.012544254306	2
0	559	274.868650005654	1
0	564	280.532395000812	2
0	568	281.1599773651	3
0	569	281.552989275141	2
0	571	282.259415174787	1
0	576	282.800487364864	2
0	577	283.717967783446	1
0	582	285.051565287413	2
0	586	285.750342256942	3
0	587	288.211175310216	2
0	592	289.083354104905	3
0	596	291.23587080203	4
0	600	291.416056022088	5
0	601	292.560283284492	4
0	603	292.959339386017	3
0	608	293.759355175248	4
0	609	294.028900523428	3
0	611	296.268353739169	2
0	616	296.508806770693	3
0	617	297.434099360146	2
0	619	297.441194755469	1
0	624	298.974100236182	2
0	625	299.536951426193	1
0	627	299.568598522954	0
0	632	302.071568158742	1
0	633	305.269016389179	0
0	638	312.472271569655	1
0	639	317.650655538072	0
0	644	318.637859923812	1
0	648	324.372676632564	2
0	652	325.764919727199	3
0	653	325.792789844194	2
0	655	326.297898207142	1
0	657	327.324584917963	0
0	662	329.14245221088	1
0	666	329.703878542701	2
0	667	330.134831411336	1
0	672	330.164495239511	2
0	673	330.519999357607	1
0	678	331.504059641652	2
0	679	332.365597089558	1
0	681	332.446229299601	0
0	686	336.840288472269	1
0	687	336.846247591688	0
0	692	338.354371375929	1
0	696	343.179782517402	2
0	700	343.405903096653	3
0	701	344.653513059772	2
0	703	345.160759951876	1
0	708	347.425732886844	2
0	712	347.872257362842	3
0	713	349.07329448125	2
0	718	350.213852751733	3
0	722	350.792229174633	4
0	726	350.852139927808	5
0	727	351.171629503618	4
0	729	351.200030924065	3
0	734	351.777733347091	4
0	735	352.974260458137	3
0	737	353.048221160436	2
0	742	353.898598355232	3
0	743	354.036813399966	2
0	745	354.24227727384	1
0	747	354.801087292089	0
0	752	356.799884618058	1
0	756	362.563631995837	2
0	757	362.665641349577	1
0	759	365.860003473717	0
0	764	370.013831466333	1
0	765	370.319959446495	0
0	770	376.815964391207	1
0	774	377.018507773189	2
0	775	379.861610122371	1
0	777	382.446872794033	0
0	782	386.738459647954	1
0	783	390.351892987613	0
0	788	392.519852257871	1
0	792	394.089217365802	2
0	796	394.637966427974	3
0	797	394.917110034536	2
0	802	396.529017949848	3
0	806	397.019443508986	4
0	807	397.189002937382	3
0	812	397.610776608549	4
0	813	397.739661532066	3
0	815	398.878324556448	2
0	817	399.093620554437	1
0	822	401.248040485351	2
0	823	401.472126605486	1
0	828	403.982180644077	2
0	829	405.23463345098	1
0	834	405.735644633194	2
0	835	406.947616349632	1
0	840	408.574471954836	2
0	841	409.333075772454	1
0	846	415.428579967795	2
0	847	416.437396852926	1
0	849	418.480229380703	0
0	854	419.900833705192	1
0	855	420.344097243418	0
0	860	422.198432082357	1
0	861	422.614146854717	0
0	866	423.954950577753	1
0	870	425.85339036294	2
0	871	427.115371752728	1
0	873	429.644733021339	0
0	878	431.827462003481	1
0	879	432.141837281914	0
0	884	439.798479098339	1
0	888	441.777762059671	2
0	889	442.383358825913	1
0	891	443.3837975603	0
0	896	443.874493231695	1
0	897	444.310215647479	0
0	902	445.181621057053	1
0	906	445.741113166031	2
0	907	445.941856460581	1
0	912	446.067221989598	2
0	913	447.368652144838	1
0	918	447.535541931622	2
0	919	447.833138179298	1
0	924	448.010680864787	2
0	928	448.660586432997	3
0	932	449.419481309324	4
0	933	449.784328820679	3
0	935	452.68422908891	2
0	937	452.921694185584	1
0	939	453.970799352219	0
0	944	454.781522563744	1
0	945	457.128687764201	0
0	950	460.707787604493	1
0	954	464.942520411259	2
0	958	465.106343018565	3
0	959	465.793898293544	2
0	961	467.662249661862	1
0	963	471.242566543856	0
0	968	475.327592427422	1
0	972	475.70619119433	2
0	973	476.959529427354	1
0	975	477.845825405911	0
0	980	478.781607736918	1
0	981	479.157367820748	0
0	986	479.628286298013	1
0	987	481.987388939668	0
0	992	484.879747191043	1
0	993	487.396798614653	0
0	998	487.920147528293	1
0	1002	487.970253713057	2
0	1006	489.441599570605	3
0	1007	490.923967452356	2
0	1009	491.494898823049	1
0	1011	495.299259820499	0
0	1016	495.45474574166	1
0	1017	496.070084004417	0
0	1022	497.175103009407	1
0	1023	498.6519936719	0
0	1028	501.382506676163	1
0	1029	503.933343622926	0
0	1034	505.051127737162	1
0	1038	508.249487374636	2
0	1042	508.558487453567	3
0	1043	508.949187524876	2
0	1045	509.19728231684	1
0	1050	512.384084369899	2
0	1054	513.957529741963	3
0	1055	515.567672370913	2
0	1057	515.737322894376	1
0	1062	517.900876408944	2
0	1063	520.936871856944	1
0	1065	521.45212843926	0
0	1070	526.968980974995	1
0	1071	526.986945747846	0
0	1076	527.495237431002	1
0	1077	531.460080495906	0
0	1082	534.017702799083	1
0	1086	537.671023298408	2
0	1087	537.811706233398	1
0	1092	538.952303537117	2
0	1093	539.241480121734	1
0	1098	539.510035612734	2
0	1099	540.257049524997	1
0	1101	540.274069416929	0
0	1106	540.854114396803	1
0	1110	542.118095887294	2
0	1111	542.38920732963	1
0	1113	543.99369078546	0
0	1118	545.40948804878	1
0	1119	546.65185726391	0
0	1124	548.975088861523	1
0	1125	552.198968672879	0
0	1130	554.023191231455	1
0	1134	554.702903269167	2
0	1135	555.331211997791	1
0	1140	555.777929388717	2
0	1141	555.822152347263	1
0	1143	559.346389610244	0
0	1148	560.913251257994	1
0	1149	561.663528281025	0
0	1154	562.539042165664	1
0	1158	565.293073312952	2
0	1159	565.305351480346	1
0	1164	565.854490484578	2
0	1165	567.08201651462	1
0	1170	567.875148239178	2
0	1174	568.404661505756	3
0	1175	568.581527023395	2
0	1177	569.367273330294	1
0	1182	573.694840520672	2
0	1183	573.698405028876	1
0	1188	577.783393461049	2
0	1189	578.644354211351	1
0	1194	579.273620026667	2
0	1195	581.321515208466	1
0	1200	581.792109186199	2
0	1201	583.76117984992	1
0	1203	586.299615080261	0
0	1208	591.583083497419	1
0	1209	596.696442140967	0
0	1214	599.492748436024	1
0	1218	599.985318049859	2
0	1219	601.954335814524	1
0	1224	602.036418265578	2
0	1228	602.872574195805	3
0	1232	603.758449136857	4
0	1233	604.26586921017	3
0	1235	604.870426011602	2
0	1237	605.341366923392	1
0	1239	608.438713268456	0
0	1244	610.263368460729	1
0	1245	612.874022123611	0
0	1250	615.529536897904	1
0	1254	615.943748481652	2
0	1255	616.128550474278	1
0	1260	618.159828387028	2
0	1261	618.789270868487	1
0	1263	619.126136420425	0
0	1268	619.917551588444	1
0	1272	621.01710464442	2
0	1273	621.440972284904	1
0	1278	624.918483516345	2
0	1279	625.024510332391	1
0	1284	625.394300017436	2
0	1285	626.220399594353	1
0	1287	627.328822449397	0
0	1292	631.97297439848	1
0	1296	637.897354579608	2
0	1297	637.973948001903	1
0	1302	638.000549339417	2
0	1306	638.417528978798	3
0	1310	638.641596434054	4
0	1314	638.724083840705	5
0	1315	639.030852156539	4
0	1317	639.089269826091	3
0	1319	639.180497088296	2
0	1321	640.002839112785	1
0	1326	641.579779624403	2
0	1327	645.056051911638	1
0	1332	645.191802058137	2
0	1333	645.203058045736	1
0	1335	645.643360418237	0
0	1340	646.519613273805	1
0	1341	647.142731884579	0
0	1346	654.17530159768	1
0	1347	654.297712461391	0
0	1352	655.117600882597	1
0	1353	655.753566220601	0
0	1358	657.142692363891	1
0	1359	657.734331550761	0
0	1364	661.087948206335	1
0	1368	661.114451534797	2
0	1369	662.210141330435	1
0	1371	664.067596018839	0
0	1376	665.6439684462	1
0	1377	669.434546976225	0
0	1382	674.162066250709	1
0	1383	674.58240003056	0
0	1388	675.245282571456	1
0	1392	676.400721578876	2
0	1393	677.582699242696	1
0	1398	679.302581326287	2
0	1402	680.013742347493	3
0	1403	680.659106124757	2
0	1405	681.817700612756	1
0	1407	682.479702422999	0
0	1412	683.447415394739	1
0	1413	685.66553050706	0
0	1418	686.810618382317	1
0	1419	689.331212467535	0
0	1424	692.438671995238	1
0	1428	693.057404352185	2
0	1429	694.028277261444	1
0	1434	694.682106360294	2
0	1438	695.624192463645	3
0	1439	695.624205819539	2
0	1444	696.734554364895	3
0	1445	696.768639216577	2
0	1447	696.863729280243	1
0	1452	697.623408179022	2
0	1453	698.760808975719	1
0	1458	699.421969595821	2
0	1459	699.433503922266	1
0	1461	702.113886246387	0
0	1466	708.251991546077	1
0	1470	708.292543886573	2
0	1471	708.335889983974	1
0	1473	709.769213827789	0
0	1478	710.926454695264	1
0	1479	715.354901918149	0
0	1484	715.94069896626	1
0	1485	715.957139491161	0
0	1490	717.352833495666	1
0	1494	718.325378955812	2
0	1498	720.010335461182	3
0	1499	722.41480936261	2
0	1501	722.712668876102	1
0	1503	723.961232692774	0
0	1508	725.448772332099	1
0	1512	726.046573418871	2
0	1516	727.849428457809	3
0	1517	730.025325342098	2
0	1519	730.44616108468	1
0	1521	733.787681898223	0
0	1526	735.488496007281	1
0	1527	735.984831286145	0
0	1532	736.260724302861	1
0	1536	739.852318259242	2
0	1537	740.010509918928	1
0	1539	741.187855571009	0
0	1544	744.632767791213	1
0	1548	745.728672189671	2
0	1552	746.414943953541	3
0	1556	746.9721520258	4
0	1557	747.377638676472	3
0	1559	750.074984306364	2
0	1561	751.238267641371	1
0	1563	751.539893568704	0
0	1568	752.164845438309	1
0	1569	753.598935863912	0
0	1574	759.125184343615	1
0	1578	760.283760013397	2
0	1579	760.645742662576	1
0	1584	761.725802421005	2
0	1588	762.265078626729	3
0	1589	764.298706281806	2
0	1591	766.202212003891	1
0	1593	768.903981030666	0
0	1598	772.365344363484	1
0	1602	773.137365258707	2
0	1603	773.270969163429	1
0	1608	773.980940188492	2
0	1612	774.109039171872	3
0	1613	774.53411013142	2
0	1615	774.795950473883	1
0	1620	775.425507554959	2
0	1624	776.579720033882	3
0	1625	776.792440191167	2
0	1627	777.214106461878	1
0	1629	777.308243082805	0
0	1634	778.766901370669	1
0	1635	779.094662424063	0
0	1640	780.937917266191	1
0	1641	781.258518934372	0
0	1646	781.32982623997	1
0	1647	782.513286569324	0
0	1652	790.634753879325	1
0	1653	793.335283661869	0
0	1658	793.583915890666	1
0	1662	798.311713850594	2
0	1663	798.497873101307	1
0	1668	800.38414254583	2
0	1672	801.211111555875	3
0	1673	801.438563326958	2
0	1675	801.598073835517	1
0	1677	802.360837532367	0
0	1682	803.485691215782	1
0	1683	803.703308940236	0
0	1688	809.498715044996	1
0	1689	810.017538132463	0
0	1694	811.061197570292	1
0	1695	813.668939807185	0
0	1700	819.187376861544	1
0	1701	820.247502947442	0
0	1706	823.052642681555	1
0	1710	824.056076594451	2
0	1711	824.291880725164	1
0	1716	825.421273537134	2
0	1717	825.999599964901	1
0	1722	826.957373319559	2
0	1726	827.497250879936	3
0	1727	827.937352666488	2
0	1729	827.980635588072	1
0	1731	828.557880115991	0
0	1736	834.370480607872	1
0	1740	836.895743641567	2
0	1744	837.098786804759	3
0	1745	837.456869098596	2
0	1750	837.898940925735	3
0	1751	839.426262548969	2
0	1756	839.604934024803	3
0	1757	839.82678704035	2
0	1759	842.400208333963	1
0	1761	844.118296165498	0
0	1766	850.843298387558	1
0	1770	851.061749394243	2
0	1774	853.938788159468	3
0	1778	854.450628173791	4
0	1782	855.416554929655	5
0	1786	856.009598137701	6
0	1787	856.159407535488	5
0	1789	856.326490097075	4
0	1791	856.531428658833	3
0	1796	856.591995722625	4
0	1800	856.712589166841	5
0	1801	857.386248999698	4
0	1803	857.972525889066	3
0	1805	859.102433212349	2
0	1807	862.4690367693	1
0	1812	865.392119288813	2
0	1813	865.470857109144	1
0	1818	865.845295242179	2
0	1819	866.477412579401	1
0	1824	866.904994164754	2
0	1825	867.452963405415	1
0	1827	867.751092761819	0
0	1832	867.974027021854	1
0	1833	868.278208739213	0
0	1838	871.330540686666	1
0	1839	874.243216754031	0
0	1844	881.898283099149	1
0	1845	882.333021671523	0
0	1850	888.1318455167	1
0	1851	888.315738046743	0
0	1856	891.090370545001	1
0	1857	891.777618058199	0
0	1862	893.745335293189	1
0	1863	894.304139054861	0
0	1868	899.798736059777	1
0	1872	899.9425123316	2
0	1876	901.836873229737	3
0	1877	902.258422683222	2
0	1882	904.075071468961	3
0	1883	904.391187607711	2
0	1885	904.898317284098	1
0	1887	910.008296858937	0
0	1892	915.675016894175	1
0	1896	915.773672151424	2
0	1897	916.215405164656	1
0	1902	917.405659093626	2
0	1903	917.611000705808	1
0	1905	918.385768329329	0
0	1910	921.025887279301	1
0	1911	921.891527663073	0
0	1916	924.937146243138	1
0	1920	927.516065290195	2
0	1921	934.387693558499	1
0	1926	935.392376259947	2
0	1930	935.483952016627	3
0	1931	938.05109303462	2
0	1936	939.236288353102	3
0	1937	939.732119674309	2
0	1939	943.159546190993	1
0	1944	944.681117108958	2
0	1945	944.939440373239	1
0	1947	945.491097020771	0
0	1952	949.820212335312	1
0	1956	950.381209674756	2
0	1960	951.04799798695	3
0	1961	951.712211495567	2
0	1963	953.590450702854	1
0	1968	956.056658053146	2
0	1972	956.468964078324	3
0	1973	957.575354287607	2
0	1978	958.062520248566	3
0	1979	958.190796297236	2
0	1984	958.238933443024	3
0	1988	958.449008995689	4
0	1992	958.771381359672	5
0	1993	959.239402714272	4
0	1995	959.526946741485	3
0	1997	960.302106271731	2
0	2002	960.708322472984	3
0	2003	961.903544718075	2
0	2005	962.818882724622	1
0	2010	963.231016978075	2
0	2011	963.554015852918	1
0	2016	964.927890604711	2
0	2020	965.076984470615	3
0	2021	965.911054681046	2
0	2023	966.009633145231	1
0	2025	969.527175418906	0
0	2030	970.489720284472	1
0	2034	970.641082796908	2
0	2035	970.768534669242	1
0	2040	970.875358215475	2
0	2041	971.489950519907	1
0	2043	972.06541069271	0
0	2048	973.639611942123	1
0	2052	974.506116067055	2
0	2056	975.9334731994	3
0	2060	976.496980744776	4
0	2064	976.838712862408	5
0	2065	977.051837107015	4
0	2067	977.35566003642	3
0	2072	977.936598041336	4
0	2073	978.651383104546	3
0	2075	981.751768721927	2
0	2080	982.844361363276	3
0	2081	986.535667628908	2
0	2086	987.320503728793	3
0	2087	987.995100789169	2
0	2089	989.478167264815	1
0	2094	991.968773058068	2
0	2095	992.668675746204	1
0	2097	993.429865020529	0
0	2102	996.44334185151	1
0	2103	997.840775979358	0
0	2108	998.244950080217	1
0	2112	999.632565467366	2
1	256	101.993410347365	7
1	258	102.026135825706	6
1	262	104.614433704861	7
1	264	106.699129003968	6
1	268	107.221222281304	5
1	272	107.948741749977	6
1	274	108.013960799125	7
1	276	111.788614345025	6
1	280	112.221994737194	5
1	284	112.452963399277	6
1	286	113.172259693317	7
1	288	113.239277107789	6
1	292	117.568122860143	5
1	296	118.29597740078	6
1	298	120.142438681189	5
1	302	120.173455581776	4
1	306	120.229169583231	5
1	308	121.464506829344	6
1	310	124.460096822167	5
1	314	124.53691682876	6
1	316	124.557922334438	5
1	320	125.343596473543	6
1	322	127.337615341744	7
1	324	127.602530951001	6
1	328	130.900793915617	5
1	332	131.671010773775	6
1	334	132.391631082018	5
1	338	133.533808924379	6
1	340	134.02634829191	7
1	342	134.815879211347	6
1	346	137.732567550422	5
1	350	138.521782902342	6
1	352	141.495836983181	5
1	356	146.478648293061	6
1	358	148.464100827914	7
1	360	163.355907954603	6
1	364	165.045714982481	7
1	366	173.253285450697	6
1	370	177.605762991539	5
1	374	177.752571516636	6
1	376	181.291729372419	5
1	380	182.744218944777	6
1	382	185.25079853145	7
1	384	186.50172696528	6
1	388	188.216803865836	5
1	392	189.879675366404	6
1	394	190.462816326747	7
1	396	191.913674095312	6
1	400	192.839739194029	5
1	404	194.424639783504	6
1	406	195.550012428506	5
1	410	196.690359611855	6
1	412	198.992821510602	7
1	414	200.733747592147	6
1	418	205.336321711999	5
1	422	205.492562719155	6
1	424	205.695530183064	7
1	426	216.118935566337	6
1	430	216.785227708965	7
1	432	218.904771988728	6
1	436	222.737837046611	7
1	438	233.599818990934	6
1	442	233.835113985907	5
1	446	234.347795820354	4
1	450	234.847538581992	5
1	452	234.933060313455	4
1	456	235.077959887117	5
1	458	235.101788122141	6
1	460	235.251055836136	7
1	462	236.252923646547	6
1	466	237.821856679784	7
1	468	240.259231827545	6
1	472	241.87619612826	5
1	476	242.766400411507	4
1	480	242.882630896088	5
1	482	244.331318139534	4
1	486	245.92574232726	5
1	488	248.18578700588	4
1	492	248.895401619388	5
1	494	249.263583358022	4
1	498	250.009806336034	5
1	500	250.798175990858	6
1	502	254.522291471888	7
1	504	254.799504482138	6
1	508	255.374248077366	5
1	512	255.614845844388	4
1	516	255.864988317262	5
1	518	256.012663156351	4
1	522	259.403167459837	3
1	526	259.615448290508	4
1	528	260.371718398585	5
1	530	260.661317349448	6
1	532	262.833393005472	7
1	534	266.016893620899	6
1	538	266.467357349114	5
1	542	268.811308630385	6
1	544	269.36143994625	5
1	548	269.684672191287	6
1	550	270.871421888311	5
1	554	272.689164517097	4
1	558	274.012544254306	5
1	560	274.868650005654	6
1	562	280.532395000812	5
1	566	281.1599773651	4
1	570	281.552989275141	5
1	572	282.259415174787	6
1	574	282.800487364864	5
1	578	283.717967783446	6
1	580	285.051565287413	5
1	584	285.750342256942	4
1	588	288.211175310216	5
1	590	289.083354104905	4
1	594	291.23587080203	3
1	598	291.416056022088	2
1	602	292.560283284492	3
1	604	292.959339386017	4
1	606	293.759355175248	3
1	610	294.028900523428	4
1	612	296.268353739169	5
1	614	296.508806770693	4
1	618	297.434099360146	5
1	620	297.441194755469	6
1	622	298.974100236182	5
1	626	299.536951426193	6
1	628	299.568598522954	7
1	630	302.071568158742	6
1	634	305.269016389179	7
1	636	312.472271569655	6
1	640	317.650655538072	7
1	642	318.637859923812	6
1	646	324.372676632564	5
1	650	325.764919727199	4
1	654	325.792789844194	5
1	656	326.297898207142	6
1	658	327.324584917963	7
1	660	329.14245221088	6
1	664	329.703878542701	5
1	668	330.134831411336	6
1	670	330.164495239511	5
1	674	330.519999357607	6
1	676	331.504059641652	5
1	680	332.365597089558	6
1	682	332.446229299601	7
1	684	336.840288472269	6
1	688	336.846247591688	7
1	690	338.354371375929	6
1	694	343.179782517402	5
1	698	343.405903096653	4
1	702	344.653513059772	5
1	704	345.160759951876	6
1	706	347.425732886844	5
1	710	347.872257362842	4
1	714	349.07329448125	5
1	716	350.213852751733	4
1	720	350.792229174633	3
1	724	350.852139927808	2
1	728	351.171629503618	3
1	730	351.200030924065	4
1	732	351.777733347091	3
1	736	352.974260458137	4
1	738	353.048221160436	5
1	740	353.898598355232	4
1	744	354.036813399966	5
1	746	354.24227727384	6
1	748	354.801087292089	7
1	750	356.799884618058	6
1	754	362.563631995837	5
1	758	362.665641349577	6
1	760	365.860003473717	7
1	762	370.013831466333	6
1	766	370.319959446495	7
1	768	376.815964391207	6
1	772	377.018507773189	5
1	776	379.861610122371	6
1	778	382.446872794033	7
1	780	386.738459647954	6
1	784	390.351892987613	7
1	786	392.519852257871	6
1	790	394.089217365802	5
1	794	394.637966427974	4
1	798	394.917110034536	5
1	800	396.529017949848	4
1	804	397.019443508986	3
1	808	397.189002937382	4
1	810	397.610776608549	3
1	814	397.739661532066	4
1	816	398.878324556448	5
1	818	399.093620554437	6
1	820	401.248040485351	5
1	824	401.472126605486	6
1	826	403.982180644077	5
1	830	405.23463345098	6
1	832	405.735644633194	5
1	836	406.947616349632	6
1	838	408.574471954836	5
1	842	409.333075772454	6
1	844	415.428579967795	5
1	848	416.437396852926	6
1	850	418.480229380703	7
1	852	419.900833705192	6
1	856	420.344097243418	7
1	858	422.198432082357	6
1	862	422.614146854717	7
1	864	423.954950577753	6
1	868	425.85339036294	5
1	872	427.115371752728	6
1	874	429.644733021339	7
1	876	431.827462003481	6
1	880	432.141837281914	7
1	882	439.798479098339	6
1	886	441.777762059671	5
1	890	442.383358825913	6
1	892	443.3837975603	7
1	894	443.874493231695	6
1	898	444.310215647479	7
1	900	445.181621057053	6
1	904	445.741113166031	5
1	908	445.941856460581	6
1	910	446.067221989598	5
1	914	447.368652144838	6
1	916	447.535541931622	5
1	920	447.833138179298	6
1	922	448.010680864787	5
1	926	448.660586432997	4
1	930	449.419481309324	3
1	934	449.784328820679	4
1	936	452.68422908891	5
1	938	452.921694185584	6
1	940	453.970799352219	7
1	942	454.781522563744	6
1	946	457.128687764201	7
1	948	460.707787604493	6
1	952	464.942520411259	5
1	956	465.106343018565	4
1	960	465.793898293544	5
1	962	467.662249661862	6
1	964	471.242566543856	7
1	966	475.327592427422	6
1	970	475.70619119433	5
1	974	476.959529427354	6
1	976	477.845825405911	7
1	978	478.781607736918	6
1	982	479.157367820748	7
1	984	479.628286298013	6
1	988	481.987388939668	7
1	990	484.879747191043	6
1	994	487.396798614653	7
1	996	487.920147528293	6
1	1000	487.970253713057	5
1	1004	489.441599570605	4
1	1008	490.923967452356	5
1	1010	491.494898823049	6
1	1012	495.299259820499	7
1	1014	495.45474574166	6
1	1018	496.070084004417	7
1	1020	497.175103009407	6
1	1024	498.6519936719	7
1	1026	501.382506676163	6
1	1030	503.933343622926	7
1	1032	505.051127737162	6
1	1036	508.249487374636	5
1	1040	508.558487453567	4
1	1044	508.949187524876	5
1	1046	509.19728231684	6
1	1048	512.384084369899	5
1	1052	513.957529741963	4
1	1056	515.567672370913	5
1	1058	515.737322894376	6
1	1060	517.900876408944	5
1	1064	520.936871856944	6
1	1066	521.45212843926	7
1	1068	526.968980974995	6
1	1072	526.986945747846	7
1	1074	527.495237431002	6
1	1078	531.460080495906	7
1	1080	534.017702799083	6
1	1084	537.671023298408	5
1	1088	537.811706233398	6
1	1090	538.952303537117	5
1	1094	539.241480121734	6
1	1096	539.510035612734	5
1	1100	540.257049524997	6
1	1102	540.274069416929	7
1	1104	540.854114396803	6
1	1108	542.118095887294	5
1	1112	542.38920732963	6
1	1114	543.99369078546	7
1	1116	545.40948804878	6
1	1120	546.65185726391	7
1	1122	548.975088861523	6
1	1126	552.198968672879	7
1	1128	554.023191231455	6
1	1132	554.702903269167	5
1	1136	555.331211997791	6
1	1138	555.777929388717	5
1	1142	555.822152347263	6
1	1144	559.346389610244	7
1	1146	560.913251257994	6
1	1150	561.663528281025	7
1	1152	562.539042165664	6
1	1156	565.293073312952	5
1	1160	565.305351480346	6
1	1162	565.854490484578	5
1	1166	567.08201651462	6
1	1168	567.875148239178	5
1	1172	568.404661505756	4
1	1176	568.581527023395	5
1	1178	569.367273330294	6
1	1180	573.694840520672	5
1	1184	573.698405028876	6
1	1186	577.783393461049	5
1	1190	578.644354211351	6
1	1192	579.273620026667	5
1	1196	581.321515208466	6
1	1198	581.792109186199	5
1	1202	583.76117984992	6
1	1204	586.299615080261	7
1	1206	591.583083497419	6
1	1210	596.696442140967	7
1	1212	599.492748436024	6
1	1216	599.985318049859	5
1	1220	601.954335814524	6
1	1222	602.036418265578	5
1	1226	602.872574195805	4
1	1230	603.758449136857	3
1	1234	604.26586921017	4
1	1236	604.870426011602	5
1	1238	605.341366923392	6
1	1240	608.438713268456	7
1	1242	610.263368460729	6
1	1246	612.874022123611	7
1	1248	615.529536897904	6
1	1252	615.943748481652	5
1	1256	616.128550474278	6
1	1258	618.159828387028	5
1	1262	618.789270868487	6
1	1264	619.126136420425	7
1	1266	619.917551588444	6
1	1270	621.01710464442	5
1	1274	621.440972284904	6
1	1276	624.918483516345	5
1	1280	625.024510332391	6
1	1282	625.394300017436	5
1	1286	626.220399594353	6
1	1288	627.328822449397	7
1	1290	631.97297439848	6
1	1294	637.897354579608	5
1	1298	637.973948001903	6
1	1300	638.000549339417	5
1	1304	638.417528978798	4
1	1308	638.641596434054	3
1	1312	638.724083840705	2
1	1316	639.030852156539	3
1	1318	639.089269826091	4
1	1320	639.180497088296	5
1	1322	640.002839112785	6
1	1324	641.579779624403	5
1	1328	645.056051911638	6
1	1330	645.191802058137	5
1	1334	645.203058045736	6
1	1336	645.643360418237	7
1	1338	646.519613273805	6
1	1342	647.142731884579	7
1	1344	654.17530159768	6
1	1348	654.297712461391	7
1	1350	655.117600882597	6
1	1354	655.753566220601	7
1	1356	657.142692363891	6
1	1360	657.734331550761	7
1	1362	661.087948206335	6
1	1366	661.114451534797	5
1	1370	662.210141330435	6
1	1372	664.067596018839	7
1	1374	665.6439684462	6
1	1378	669.434546976225	7
1	1380	674.162066250709	6
1	1384	674.58240003056	7
1	1386	675.245282571456	6
1	1390	676.400721578876	5
1	1394	677.582699242696	6
1	1396	679.302581326287	5
1	1400	680.013742347493	4
1	1404	680.659106124757	5
1	1406	681.817700612756	6
1	1408	682.479702422999	7
1	1410	683.447415394739	6
1	1414	685.66553050706	7
1	1416	686.810618382317	6
1	1420	689.331212467535	7
1	1422	692.438671995238	6
1	1426	693.057404352185	5
1	1430	694.028277261444	6
1	1432	694.682106360294	5
1	1436	695.624192463645	4
1	1440	695.624205819539	5
1	1442	696.734554364895	4
1	1446	696.768639216577	5
1	1448	696.863729280243	6
1	1450	697.623408179022	5
1	1454	698.760808975719	6
1	1456	699.421969595821	5
1	1460	699.433503922266	6
1	1462	702.113886246387	7
1	1464	708.251991546077	6
1	1468	708.292543886573	5
1	1472	708.335889983974	6
1	1474	709.769213827789	7
1	1476	710.926454695264	6
1	1480	715.354901918149	7
1	1482	715.94069896626	6
1	1486	715.957139491161	7
1	1488	717.352833495666	6
1	1492	718.325378955812	5
1	1496	720.010335461182	4
1	1500	722.41480936261	5
1	1502	722.712668876102	6
1	1504	723.961232692774	7
1	1506	725.448772332099	6
1	1510	726.046573418871	5
1	1514	727.849428457809	4
1	1518	730.025325342098	5
1	1520	730.44616108468	6
1	1522	733.787681898223	7
1	1524	735.488496007281	6
1	1528	735.984831286145	7
1	1530	736.260724302861	6
1	1534	739.852318259242	5
1	1538	740.010509918928	6
1	1540	741.187855571009	7
1	1542	744.632767791213	6
1	1546	745.728672189671	5
1	1550	746.414943953541	4
1	1554	746.9721520258	3
1	1558	747.377638676472	4
1	1560	750.074984306364	5
1	1562	751.238267641371	6
1	1564	751.539893568704	7
1	1566	752.164845438309	6
1	1570	753.598935863912	7
1	1572	759.125184343615	6
1	1576	760.283760013397	5
1	1580	760.645742662576	6
1	1582	761.725802421005	5
1	1586	762.265078626729	4
1	1590	764.298706281806	5
1	1592	766.202212003891	6
1	1594	768.903981030666	7
1	1596	772.365344363484	6
1	1600	773.137365258707	5
1	1604	773.270969163429	6
1	1606	773.980940188492	5
1	1610	774.109039171872	4
1	1614	774.53411013142	5
1	1616	774.795950473883	6
1	1618	775.425507554959	5
1	1622	776.579720033882	4
1	1626	776.792440191167	5
1	1628	777.214106461878	6
1	1630	777.308243082805	7
1	1632	778.766901370669	6
1	1636	779.094662424063	7
1	1638	780.937917266191	6
1	1642	781.258518934372	7
1	1644	781.32982623997	6
1	1648	782.513286569324	7
1	1650	790.634753879325	6
1	1654	793.335283661869	7
1	1656	793.583915890666	6
1	1660	798.311713850594	5
1	1664	798.497873101307	6
1	1666	800.38414254583	5
1	1670	801.211111555875	4
1	1674	801.438563326958	5
1	1676	801.598073835517	6
1	1678	802.360837532367	7
1	1680	803.485691215782	6
1	1684	803.703308940236	7
1	1686	809.498715044996	6
1	1690	810.017538132463	7
1	1692	811.061197570292	6
1	1696	813.668939807185	7
1	1698	819.187376861544	6
1	1702	820.247502947442	7
1	1704	823.052642681555	6
1	1708	824.056076594451	5
1	1712	824.291880725164	6
1	1714	825.421273537134	5
1	1718	825.999599964901	6
1	1720	826.957373319559	5
1	1724	827.497250879936	4
1	1728	827.937352666488	5
1	1730	827.980635588072	6