version 3
run General-38-20221103-10:28:22-6760
attr configname General
attr datetime 20221103-10:28:22
attr datetimef 20221103-102822
attr experiment General
attr inifile block.ini
attr iterationvars "$0=4, $1=20"
attr iterationvarsd 4/20
attr iterationvarsf 4,20-
attr measurement "$0=4, $1=20"
attr network Block
attr processid 6760
attr repetition 3
attr replication #3
attr resultdir results
attr runnumber 38
attr seedset 38
config network Block
config repeat 5
config sim-time-limit 1000s
config warmup-period 100s
config **.alloca.resourceModuleName "\"risorse\""
config **.dealloca.resourceModuleName "\"risorse\""
config **.is.delay exponential(3s)
config **.servente.serviceTime exponential(4s)
config **.dealloca.resourceAmount 2
config **.alloca.resourceAmount 2
config **.risorse.amount 6
config **.sorgente.numJobs (20)
config **.result-recording-modes all

vector 0 Block.servente queueLength:vector ETV
attr interpolationmode sample-hold
attr recordingmode vector
attr title "queue length"
vector 1 Block.servente queueingTime:vector ETV
attr interpolationmode none
attr recordingmode vector
attr title "queueing time at dequeue"
attr unit s
vector 2 Block.alloca queueLength:vector ETV
attr interpolationmode sample-hold
attr recordingmode vector
attr title "queue length"
vector 3 Block.alloca queueingTime:vector ETV
attr interpolationmode none
attr recordingmode vector
attr title "queueing time at dequeue"
attr unit s
vector 4 Block.risorse amount:vector ETV
attr interpolationmode sample-hold
attr recordingmode vector
attr title "available resource"
vector 5 Block.is delayedJobs:vector ETV
attr interpolationmode sample-hold
attr recordingmode vector
attr title "number of delayed jobs"
0	251	109.632319873051	1
0	253	109.632319873051	2
0	257	118.938543021215	1
0	259	118.938543021215	2
0	261	119.599840353703	1
0	263	119.599840353703	2
0	267	123.346123502168	1
0	269	123.346123502168	2
0	273	123.771323084425	1
0	275	123.771323084425	2
0	281	128.72694164189	1
0	283	128.72694164189	2
0	285	136.846282374334	1
0	287	136.846282374334	2
0	291	138.965232795737	1
0	293	138.965232795737	2
0	297	141.615837898312	1
0	299	141.615837898312	2
0	301	142.535172621634	1
0	303	142.535172621634	2
0	311	151.562291038851	1
0	313	151.562291038851	2
0	315	151.944694649146	1
0	317	151.944694649146	2
0	323	158.573061285006	1
0	325	158.573061285006	2
0	329	162.641830406273	1
0	331	162.641830406273	2
0	333	163.131209632992	1
0	335	163.131209632992	2
0	339	163.773601030881	1
0	341	163.773601030881	2
0	345	165.864913962843	1
0	347	165.864913962843	2
0	353	168.013389026918	1
0	355	168.013389026918	2
0	359	174.684555752819	1
0	361	174.684555752819	2
0	365	178.056178791	1
0	367	178.056178791	2
0	371	187.364544609294	1
0	373	187.364544609294	2
0	377	192.616396052611	1
0	379	192.616396052611	2
0	383	207.368879891868	1
0	385	207.368879891868	2
0	389	216.633672315594	1
0	391	216.633672315594	2
0	393	216.63955492275	1
0	395	216.63955492275	2
0	397	218.360360343335	1
0	399	218.360360343335	2
0	401	218.708939803664	1
0	403	218.708939803664	2
0	413	222.98627644256	1
0	415	222.98627644256	2
0	419	232.455873488611	1
0	421	232.455873488611	2
0	425	236.396459399415	1
0	427	236.396459399415	2
0	429	236.977988109884	1
0	431	236.977988109884	2
0	437	248.888888835051	1
0	439	248.888888835051	2
0	441	250.596744303527	1
0	443	250.596744303527	2
0	447	251.312776403374	1
0	449	251.312776403374	2
0	455	266.586937834855	1
0	457	266.586937834855	2
0	459	267.496915882351	1
0	461	267.496915882351	2
0	465	272.538699972154	1
0	467	272.538699972154	2
0	469	276.542562148984	1
0	471	276.542562148984	2
0	473	276.820775179594	1
0	475	276.820775179594	2
0	483	279.367490762962	1
0	485	279.367490762962	2
0	489	279.69887700933	1
0	491	279.69887700933	2
0	495	279.824069386463	1
0	497	279.824069386463	2
0	501	280.453712085775	1
0	503	280.453712085775	2
0	505	281.782613894887	1
0	507	281.782613894887	2
0	509	283.378115865767	1
0	511	283.378115865767	2
0	521	287.904782525597	1
0	523	287.904782525597	2
0	527	291.000146982377	1
0	529	291.000146982377	2
0	531	292.52357119274	1
0	533	292.52357119274	2
0	539	296.728594908294	1
0	541	296.728594908294	2
0	543	301.619346879817	1
0	545	301.619346879817	2
0	547	302.126487318586	1
0	549	302.126487318586	2
0	555	304.160173609037	1
0	557	304.160173609037	2
0	563	309.851063843767	1
0	565	309.851063843767	2
0	567	314.489299394387	1
0	569	314.489299394387	2
0	575	320.933543709019	1
0	577	320.933543709019	2
0	579	322.22279455162	1
0	581	322.22279455162	2
0	587	328.80040663511	1
0	589	328.80040663511	2
0	591	329.086893949485	1
0	593	329.086893949485	2
0	599	343.308044120366	1
0	601	343.308044120366	2
0	603	344.314933224744	1
0	605	344.314933224744	2
0	609	348.84564307406	1
0	611	348.84564307406	2
0	617	350.234418152459	1
0	619	350.234418152459	2
0	623	351.761829287548	1
0	625	351.761829287548	2
0	627	352.027762042189	1
0	629	352.027762042189	2
0	635	359.192257348734	1
0	637	359.192257348734	2
0	641	364.896554287722	1
0	643	364.896554287722	2
0	647	369.039350138417	1
0	649	369.039350138417	2
0	653	376.402683613984	1
0	655	376.402683613984	2
0	657	376.92721537945	1
0	659	376.92721537945	2
0	663	389.273363630125	1
0	665	389.273363630125	2
0	671	399.536748973004	1
0	673	399.536748973004	2
0	677	403.672733594777	1
0	679	403.672733594777	2
0	681	406.378205353054	1
0	683	406.378205353054	2
0	689	407.462859309347	1
0	691	407.462859309347	2
0	693	415.076075042396	1
0	695	415.076075042396	2
0	701	421.765213117672	1
0	703	421.765213117672	2
0	707	427.906253217324	1
0	709	427.906253217324	2
0	713	437.521866185955	1
0	715	437.521866185955	2
0	719	448.668113891607	1
0	721	448.668113891607	2
0	723	454.170113338582	1
0	725	454.170113338582	2
0	729	459.162381588762	1
0	731	459.162381588762	2
0	733	460.000153898043	1
0	735	460.000153898043	2
0	743	465.359652593803	1
0	745	465.359652593803	2
0	747	466.951424584301	1
0	749	466.951424584301	2
0	751	468.998887270726	1
0	753	468.998887270726	2
0	761	473.796297121274	1
0	763	473.796297121274	2
0	767	477.523059661008	1
0	769	477.523059661008	2
0	771	478.570736254695	1
0	773	478.570736254695	2
0	777	480.232279883786	1
0	779	480.232279883786	2
0	781	481.29805049042	1
0	783	481.29805049042	2
0	787	481.95090745962	1
0	789	481.95090745962	2
0	793	482.662721130458	1
0	795	482.662721130458	2
0	801	488.88870555959	1
0	803	488.88870555959	2
0	807	498.071977367363	1
0	809	498.071977367363	2
0	815	508.663884833127	1
0	817	508.663884833127	2
0	821	513.965728385254	1
0	823	513.965728385254	2
0	825	514.880179462867	1
0	827	514.880179462867	2
0	833	525.446025393236	1
0	835	525.446025393236	2
0	839	530.651969305724	1
0	841	530.651969305724	2
0	843	533.422367482911	1
0	845	533.422367482911	2
0	847	533.680969297906	1
0	849	533.680969297906	2
0	857	537.212037087567	1
0	859	537.212037087567	2
0	861	538.98968863113	1
0	863	538.98968863113	2
0	867	544.448644999517	1
0	869	544.448644999517	2
0	871	544.833326897451	1
0	873	544.833326897451	2
0	875	545.569615037617	1
0	877	545.569615037617	2
0	879	546.494109629238	1
0	881	546.494109629238	2
0	893	553.742362129829	1
0	895	553.742362129829	2
0	899	554.680810755843	1
0	901	554.680810755843	2
0	905	560.05585828899	1
0	907	560.05585828899	2
0	911	567.309274410364	1
0	913	567.309274410364	2
0	917	581.573552457442	1
0	919	581.573552457442	2
0	923	584.733658674547	1
0	925	584.733658674547	2
0	929	590.074254599143	1
0	931	590.074254599143	2
0	935	595.572213198823	1
0	937	595.572213198823	2
0	941	598.477769295704	1
0	943	598.477769295704	2
0	947	605.709662021105	1
0	949	605.709662021105	2
0	953	610.366819160943	1
0	955	610.366819160943	2
0	957	610.816397840359	1
0	959	610.816397840359	2
0	963	616.550713502821	1
0	965	616.550713502821	2
0	971	618.975574828409	1
0	973	618.975574828409	2
0	977	626.343864572182	1
0	979	626.343864572182	2
0	981	626.431195730632	1
0	983	626.431195730632	2
0	985	626.851167786946	1
0	987	626.851167786946	2
0	993	628.267243125001	1
0	995	628.267243125001	2
0	999	629.943470360419	1
0	1001	629.943470360419	2
0	1005	632.370625841726	1
0	1007	632.370625841726	2
0	1013	635.94244967165	1
0	1015	635.94244967165	2
0	1019	637.891392184626	1
0	1021	637.891392184626	2
0	1025	656.84098562237	1
0	1027	656.84098562237	2
0	1029	659.51382480463	1
0	1031	659.51382480463	2
0	1037	660.818069856211	1
0	1039	660.818069856211	2
0	1041	663.231180843514	1
0	1043	663.231180843514	2
0	1049	663.85778497764	1
0	1051	663.85778497764	2
0	1053	668.454259852946	1
0	1055	668.454259852946	2
0	1061	673.935109692107	1
0	1063	673.935109692107	2
0	1067	676.324170490578	1
0	1069	676.324170490578	2
0	1071	676.815975348479	1
0	1073	676.815975348479	2
0	1077	679.754977428078	1
0	1079	679.754977428078	2
0	1085	686.419872424235	1
0	1087	686.419872424235	2
0	1091	693.039809709072	1
0	1093	693.039809709072	2
0	1097	693.765214657757	1
0	1099	693.765214657757	2
0	1103	698.02006655945	1
0	1105	698.02006655945	2
0	1109	710.412670176207	1
0	1111	710.412670176207	2
0	1113	716.969548102846	1
0	1115	716.969548102846	2
0	1119	720.796138638391	1
0	1121	720.796138638391	2
0	1127	721.151386822022	1
0	1129	721.151386822022	2
0	1133	723.040699841441	1
0	1135	723.040699841441	2
0	1139	732.809461538729	1
0	1141	732.809461538729	2
0	1145	737.193453520261	1
0	1147	737.193453520261	2
0	1151	755.164236001394	1
0	1153	755.164236001394	2
0	1157	764.895709302608	1
0	1159	764.895709302608	2
0	1161	765.423746342465	1
0	1163	765.423746342465	2
0	1165	766.048530781956	1
0	1167	766.048530781956	2
0	1169	766.26693591133	1
0	1171	766.26693591133	2
0	1179	774.70894650514	1
0	1181	774.70894650514	2
0	1187	775.501292955414	1
0	1189	775.501292955414	2
0	1191	776.174522633931	1
0	1193	776.174522633931	2
0	1195	776.859583169311	1
0	1197	776.859583169311	2
0	1203	779.021473506812	1
0	1205	779.021473506812	2
0	1209	785.256043894702	1
0	1211	785.256043894702	2
0	1217	789.673198708457	1
0	1219	789.673198708457	2
0	1223	795.339623133485	1
0	1225	795.339623133485	2
0	1227	799.124716706681	1
0	1229	799.124716706681	2
0	1233	799.800407954203	1
0	1235	799.800407954203	2
0	1239	801.980927297432	1
0	1241	801.980927297432	2
0	1247	815.9489654747	1
0	1249	815.9489654747	2
0	1251	816.569877679133	1
0	1253	816.569877679133	2
0	1257	818.096207369396	1
0	1259	818.096207369396	2
0	1265	822.370663420364	1
0	1267	822.370663420364	2
0	1271	838.317766094747	1
0	1273	838.317766094747	2
0	1277	841.730885222009	1
0	1279	841.730885222009	2
0	1283	851.845987914239	1
0	1285	851.845987914239	2
0	1287	852.91018248302	1
0	1289	852.91018248302	2
0	1295	855.26792681894	1
0	1297	855.26792681894	2
0	1299	858.450799521001	1
0	1301	858.450799521001	2
0	1305	863.885460719419	1
0	1307	863.885460719419	2
0	1309	866.609662037535	1
0	1311	866.609662037535	2
0	1319	876.408883358301	1
0	1321	876.408883358301	2
0	1323	876.442919313818	1
0	1325	876.442919313818	2
0	1329	881.544605536185	1
0	1331	881.544605536185	2
0	1333	884.681639384504	1
0	1335	884.681639384504	2
0	1343	895.675726945783	1
0	1345	895.675726945783	2
0	1349	904.298659333211	1
0	1351	904.298659333211	2
0	1353	904.732151743125	1
0	1355	904.732151743125	2
0	1359	905.735715926902	1
0	1361	905.735715926902	2
0	1367	909.559922982824	1
0	1369	909.559922982824	2
0	1373	915.522044817508	1
0	1375	915.522044817508	2
0	1377	916.635886384869	1
0	1379	916.635886384869	2
0	1381	916.804569478651	1
0	1383	916.804569478651	2
0	1385	916.887976483105	1
0	1387	916.887976483105	2
0	1395	922.31764909713	1
0	1397	922.31764909713	2
0	1401	922.983375604438	1
0	1403	922.983375604438	2
0	1409	940.822834213803	1
0	1411	940.822834213803	2
0	1415	946.416733461891	1
0	1417	946.416733461891	2
0	1419	948.403244465956	1
0	1421	948.403244465956	2
0	1423	948.646449422381	1
0	1425	948.646449422381	2
0	1427	950.006219792421	1
0	1429	950.006219792421	2
0	1437	953.555115689698	1
0	1439	953.555115689698	2
0	1445	961.172809428939	1
0	1447	961.172809428939	2
0	1451	970.395180834537	1
0	1453	970.395180834537	2
0	1455	971.215930630536	1
0	1457	971.215930630536	2
0	1459	974.894150162113	1
0	1461	974.894150162113	2
0	1467	978.260334345579	1
0	1469	978.260334345579	2
0	1475	983.554698999067	1
0	1477	983.554698999067	2
0	1481	985.398635851186	1
0	1483	985.398635851186	2
0	1487	990.900680225831	1
0	1489	990.900680225831	2
0	1493	993.798816681201	1
0	1495	993.798816681201	2
0	1497	995.727449106107	1
0	1499	995.727449106107	2
0	1503	997.796465366793	1
0	1505	997.796465366793	2
0	1509	999.675542010342	1
0	1511	999.675542010342	2
1	251	109.632319873051	21.032790374392
1	257	118.938543021215	29.977689680829
1	261	119.599840353703	9.967520480652
1	267	123.346123502168	4.407580480953
1	273	123.771323084425	4.171482730722
1	281	128.72694164189	5.380818139722
1	285	136.846282374334	13.074959289909
1	291	138.965232795737	10.238291153847
1	297	141.615837898312	4.769555523978
1	301	142.535172621634	3.569939825897
1	311	151.562291038851	9.946453140539
1	315	151.944694649146	9.409522027512
1	323	158.573061285006	7.010770246155
1	329	162.641830406273	10.697135757127
1	333	163.131209632992	4.558148347986
1	339	163.773601030881	1.131770624608
1	345	165.864913962843	2.733704329851
1	353	168.013389026918	4.239787996037
1	359	174.684555752819	8.819641789976
1	365	178.056178791	10.042789764082
1	371	187.364544609294	12.679988856475
1	377	192.616396052611	14.560217261611
1	383	207.368879891868	20.004335282574
1	389	216.633672315594	24.017276262983
1	393	216.63955492275	9.270675030882
1	397	218.360360343335	1.726688027741
1	401	218.708939803664	2.069384880914
1	413	222.98627644256	4.625916099225
1	419	232.455873488611	13.746933684947
1	425	236.396459399415	13.410182956855
1	429	236.977988109884	4.522114621273
1	437	248.888888835051	12.492429435636
1	441	250.596744303527	13.618756193643
1	447	251.312776403374	2.423887568323
1	455	266.586937834855	15.990193531328
1	459	267.496915882351	16.184139478977
1	465	272.538699972154	5.951762137299
1	469	276.542562148984	9.045646266633
1	473	276.820775179594	4.28207520744
1	483	279.367490762962	2.824928613978
1	489	279.69887700933	2.878101829736
1	495	279.824069386463	0.456578623501
1	501	280.453712085775	0.754835076445
1	505	281.782613894887	1.958544508424
1	509	283.378115865767	2.924403779992
1	521	287.904782525597	6.12216863071
1	527	291.000146982377	7.62203111661
1	531	292.52357119274	4.618788667143
1	539	296.728594908294	5.728447925917
1	543	301.619346879817	9.095775687077
1	547	302.126487318586	5.397892410292
1	555	304.160173609037	2.54082672922
1	563	309.851063843767	7.724576525181
1	567	314.489299394387	10.32912578535
1	575	320.933543709019	11.082479865252
1	579	322.22279455162	7.733495157233
1	587	328.80040663511	7.866862926091
1	591	329.086893949485	6.864099397865
1	599	343.308044120366	14.507637485256
1	603	344.314933224744	15.228039275259
1	609	348.84564307406	5.537598953694
1	617	350.234418152459	5.919484927715
1	623	351.761829287548	2.916186213488
1	627	352.027762042189	1.79334388973
1	635	359.192257348734	7.430428061186
1	641	364.896554287722	12.868792245533
1	647	369.039350138417	9.847092789683
1	653	376.402683613984	11.506129326262
1	657	376.92721537945	7.887865241033
1	663	389.273363630125	12.870680016141
1	671	399.536748973004	22.609533593554
1	677	403.672733594777	14.399369964652
1	681	406.378205353054	6.84145638005
1	689	407.462859309347	3.79012571457
1	693	415.076075042396	8.697869689342
1	701	421.765213117672	14.302353808325
1	707	427.906253217324	12.830178174928
1	713	437.521866185955	15.756653068283
1	719	448.668113891607	20.761860674283
1	723	454.170113338582	16.648247152627
1	729	459.162381588762	10.494267697155
1	733	460.000153898043	5.830040559461
1	743	465.359652593803	6.197271005041
1	747	466.951424584301	6.951270686258
1	751	468.998887270726	3.639234676923
1	761	473.796297121274	6.844872536973
1	767	477.523059661008	8.524172390282
1	771	478.570736254695	4.774439133421
1	777	480.232279883786	2.709220222778
1	781	481.29805049042	2.727314235725
1	787	481.95090745962	1.718627575834
1	793	482.662721130458	1.364670640038
1	801	488.88870555959	6.93779809997
1	807	498.071977367363	15.409256236905
1	815	508.663884833127	19.775179273537
1	821	513.965728385254	15.893751017891
1	825	514.880179462867	6.21629462974
1	833	525.446025393236	11.480297007982
1	839	530.651969305724	15.771789842857
1	843	533.422367482911	7.976342089675
1	847	533.680969297906	3.028999992182
1	857	537.212037087567	3.789669604656
1	861	538.98968863113	5.308719333224
1	867	544.448644999517	7.23660791195
1	871	544.833326897451	5.843638266321
1	875	545.569615037617	1.1209700381
1	879	546.494109629238	1.660782731787
1	893	553.742362129829	8.172747092212
1	899	554.680810755843	8.186701126605
1	905	560.05585828899	6.313496159161
1	911	567.309274410364	12.628463654521
1	917	581.573552457442	21.517694168452
1	923	584.733658674547	17.424384264183
1	929	590.074254599143	8.500702141701
1	935	595.572213198823	10.838554524276
1	941	598.477769295704	8.403514696561
1	947	605.709662021105	10.137448822282
1	953	610.366819160943	11.889049865239
1	957	610.816397840359	5.106735819254
1	963	616.550713502821	6.183894341878
1	971	618.975574828409	8.15917698805
1	977	626.343864572182	9.793151069361
1	981	626.431195730632	7.455620902223
1	985	626.851167786946	0.507303214764
1	993	628.267243125001	1.836047394369
1	999	629.943470360419	3.092302573473
1	1005	632.370625841726	4.103382716725
1	1013	635.94244967165	5.998979311231
1	1019	637.891392184626	5.5207663429
1	1025	656.84098562237	20.89853595072
1	1029	659.51382480463	21.622432620004
1	1037	660.818069856211	3.977084233841
1	1041	663.231180843514	3.717356038884
1	1049	663.85778497764	3.039715121429
1	1053	668.454259852946	5.223079009432
1	1061	673.935109692107	10.077324714467
1	1067	676.324170490578	7.869910637632
1	1071	676.815975348479	2.880865656372
1	1077	679.754977428078	3.4308069375
1	1085	686.419872424235	9.603897075756
1	1091	693.039809709072	13.284832280994
1	1097	693.765214657757	7.345342233522
1	1103	698.02006655945	4.980256850378
1	1109	710.412670176207	16.64745551845
1	1113	716.969548102846	18.949481543396
1	1119	720.796138638391	10.383468462184
1	1127	721.151386822022	4.181838719176
1	1133	723.040699841441	2.24456120305
1	1139	732.809461538729	11.658074716707
1	1145	737.193453520261	14.15275367882
1	1151	755.164236001394	22.354774462665
1	1157	764.895709302608	27.702255782347
1	1161	765.423746342465	10.259510341071
1	1165	766.048530781956	1.152821479348
1	1169	766.26693591133	0.843189568865
1	1179	774.70894650514	8.660415723184
1	1187	775.501292955414	9.234357044084
1	1191	776.174522633931	1.465576128791
1	1195	776.859583169311	1.358290213897
1	1203	779.021473506812	2.846950872881
1	1209	785.256043894702	8.396460725391
1	1217	789.673198708457	10.651725201645
1	1223	795.339623133485	10.083579238783
1	1227	799.124716706681	9.451517998224
1	1233	799.800407954203	4.460784820718
1	1239	801.980927297432	2.856210590751
1	1247	815.9489654747	16.148557520497
1	1251	816.569877679133	14.588950381701
1	1257	818.096207369396	2.147241894696
1	1265	822.370663420364	5.800785741231
1	1271	838.317766094747	20.221558725351
1	1277	841.730885222009	19.360221801645
1	1283	851.845987914239	13.528221819492
1	1287	852.91018248302	11.179297261011
1	1295	855.26792681894	3.421938904701
1	1299	858.450799521001	5.540617037981
1	1305	863.885460719419	8.617533900479
1	1309	866.609662037535	8.158862516534
1	1319	876.408883358301	12.523422638882
1	1323	876.442919313818	9.833257276283
1	1329	881.544605536185	5.135722177884
1	1333	884.681639384504	8.238720070686
1	1343	895.675726945783	14.131121409598
1	1349	904.298659333211	19.617019948707
1	1353	904.732151743125	9.056424797342
1	1359	905.735715926902	1.437056593691
1	1367	909.559922982824	4.827771239699
1	1373	915.522044817508	9.786328890606
1	1377	916.635886384869	7.075963402045
1	1381	916.804569478651	1.282524661143
1	1385	916.887976483105	0.252090098236
1	1395	922.31764909713	5.513079618479
1	1401	922.983375604438	6.095399121333
1	1409	940.822834213803	18.505185116673
1	1415	946.416733461891	23.433357857453
1	1419	948.403244465956	7.580410252153
1	1423	948.646449422381	2.22971596049
1	1427	950.006219792421	1.602975326465
1	1437	953.555115689698	4.908666267317
1	1445	961.172809428939	11.166589636518
1	1451	970.395180834537	16.840065144839
1	1455	971.215930630536	10.043121201597
1	1459	974.894150162113	4.498969327576
1	1467	978.260334345579	7.044403715043
1	1475	983.554698999067	8.660548836954
1	1481	985.398635851186	7.138301505607
1	1487	990.900680225831	7.345981226764
1	1493	993.798816681201	8.400180830015
1	1497	995.727449106107	4.826768880276
1	1503	997.796465366793	3.997648685592
1	1509	999.675542010342	3.948092904235
2	252	109.632319873051	16
2	256	110.040442291399	17
2	258	118.938543021215	16
2	262	119.599840353703	15
2	266	120.337076747358	16
2	268	123.346123502168	15
2	272	123.630460174618	16
2	274	123.771323084425	15
2	278	123.950011329091	16
2	280	124.158807097396	17
2	282	128.72694164189	16
2	286	136.846282374334	15
2	290	138.020932935704	16
2	292	138.965232795737	15
2	296	140.506427530641	16
2	298	141.615837898312	15
2	302	142.535172621634	14
2	306	143.211315676786	15
2	308	143.570343094932	16
2	310	144.157505460162	17
2	312	151.562291038851	16
2	316	151.944694649146	15
2	320	152.610167342417	16
2	322	154.473169927388	17
2	324	158.573061285006	16
2	328	159.927364337742	17
2	330	162.641830406273	16
2	334	163.131209632992	15
2	338	163.505155782863	16
2	340	163.773601030881	15
2	344	164.880716964866	16
2	346	165.864913962843	15
2	350	166.531997651863	16
2	352	167.063918785928	17
2	354	168.013389026918	16
2	358	171.148451461328	17
2	360	174.684555752819	16
2	364	176.30466856367	17
2	366	178.056178791	16
2	370	179.086761181344	17
2	372	187.364544609294	16
2	376	190.871590205086	17
2	378	192.616396052611	16
2	382	200.187585166915	17
2	384	207.368879891868	16
2	388	209.966460630296	17
2	390	216.633672315594	16
2	394	216.63955492275	15
2	398	218.360360343335	14
2	402	218.708939803664	13
2	406	219.738019293254	14
2	408	219.961044548436	15
2	410	220.197975768983	16
2	412	221.619007619441	17
2	414	222.98627644256	16
2	418	226.900935028132	17
2	420	232.455873488611	16
2	424	235.48783134826	17
2	426	236.396459399415	16
2	430	236.977988109884	15
2	434	237.060571934188	16
2	436	238.234308083079	17
2	438	248.888888835051	16
2	442	250.596744303527	15
2	446	251.13033531379	16
2	448	251.312776403374	15
2	452	252.421351623419	16
2	454	254.39256385934	17
2	456	266.586937834855	16
2	460	267.496915882351	15
2	464	268.942531362832	16
2	466	272.538699972154	15
2	470	276.542562148984	14
2	474	276.820775179594	13
2	478	277.191066708647	14
2	480	277.78522852626	15
2	482	278.437711309101	16
2	484	279.367490762962	15
2	488	279.411916695254	16
2	490	279.69887700933	15
2	494	279.798560607458	16
2	496	279.824069386463	15
2	500	279.884229167176	16
2	502	280.453712085775	15
2	506	281.782613894887	14
2	510	283.378115865767	13
2	514	283.47484228767	14
2	516	283.960225137267	15
2	518	284.437571038803	16
2	520	284.461354948795	17
2	522	287.904782525597	16
2	526	290.252804478882	17
2	528	291.000146982377	16
2	532	292.52357119274	15
2	536	293.862988410304	16
2	538	296.684034268631	17
2	540	296.728594908294	16
2	544	301.619346879817	15
2	548	302.126487318586	14
2	552	302.880843981671	15
2	554	302.930332539096	16
2	556	304.160173609037	15
2	560	307.31410376468	16
2	562	307.415240910818	17
2	564	309.851063843767	16
2	568	314.489299394387	15
2	572	317.879041024386	16
2	574	318.814803233585	17
2	576	320.933543709019	16
2	580	322.22279455162	15
2	584	323.074218834793	16
2	586	323.083154565223	17
2	588	328.80040663511	16
2	592	329.086893949485	15
2	596	329.278491626952	16
2	598	330.657878498173	17
2	600	343.308044120366	16
2	604	344.314933224744	15
2	608	345.123619830539	16
2	610	348.84564307406	15
2	614	349.555386832639	16
2	616	350.007694973146	17
2	618	350.234418152459	16
2	622	351.55529560533	17
2	624	351.761829287548	16
2	628	352.027762042189	15
2	632	353.967716441723	16
2	634	354.66409777571	17
2	636	359.192257348734	16
2	640	362.034526682231	17
2	642	364.896554287722	16
2	646	365.946624312595	17
2	648	369.039350138417	16
2	652	369.366323082716	17
2	654	376.402683613984	16
2	658	376.92721537945	15
2	662	377.040261434284	16
2	664	389.273363630125	15
2	668	391.485197895227	16
2	670	397.040880457918	17
2	672	399.536748973004	16
2	676	400.723535389681	17
2	678	403.672733594777	16
2	682	406.378205353054	15
2	686	406.863444291718	16
2	688	406.867816745356	17
2	690	407.462859309347	16
2	694	415.076075042396	15
2	698	415.35395293753	16
2	700	416.733162089788	17
2	702	421.765213117672	16
2	706	426.787122715391	17
2	708	427.906253217324	16
2	712	430.154629388068	17
2	714	437.521866185955	16
2	718	439.67413534466	17
2	720	448.668113891607	16
2	724	454.170113338582	15
2	728	455.914700169452	16
2	730	459.162381588762	15
2	734	460.000153898043	14
2	738	460.947426240778	15
2	740	460.989450782401	16
2	742	464.359642095355	17
2	744	465.359652593803	16
2	748	466.951424584301	15
2	752	468.998887270726	14
2	756	470.123229689882	15
2	758	473.473997251748	16
2	760	473.666844187629	17
2	762	473.796297121274	16
2	766	473.928240945693	17
2	768	477.523059661008	16
2	772	478.570736254695	15
2	776	479.521518150794	16
2	778	480.232279883786	15
2	782	481.29805049042	14
2	786	481.346254195794	15
2	788	481.95090745962	14
2	792	482.13611770694	15
2	794	482.662721130458	14
2	798	484.357004970297	15
2	800	484.741392671037	16
2	802	488.88870555959	15
2	806	492.684676137642	16
2	808	498.071977367363	15
2	812	501.703399940152	16
2	814	501.716586815508	17
2	816	508.663884833127	16
2	820	509.741804618341	17
2	822	513.965728385254	16
2	826	514.880179462867	15
2	830	515.049793923419	16
2	832	518.612532782625	17
2	834	525.446025393236	16
2	838	528.742393864286	17
2	840	530.651969305724	16
2	844	533.422367482911	15
2	848	533.680969297906	14
2	852	534.563485973928	15
2	854	535.306211470272	16
2	856	535.427387289821	17
2	858	537.212037087567	16
2	862	538.98968863113	15
2	866	541.903015161576	16
2	868	544.448644999517	15
2	872	544.833326897451	14
2	876	545.569615037617	13
2	880	546.494109629238	12
2	884	546.743561904132	13
2	886	546.87719382513	14
2	888	547.149289722382	15
2	890	547.220080237083	16
2	892	548.239352914688	17
2	894	553.742362129829	16
2	898	553.955205451727	17
2	900	554.680810755843	16
2	904	555.758216816092	17
2	906	560.05585828899	16
2	910	561.194205355327	17
2	912	567.309274410364	16
2	916	570.222237892187	17
2	918	581.573552457442	16
2	922	582.391924632586	17
2	924	584.733658674547	16
2	928	585.735632185511	17
2	930	590.074254599143	16
2	934	592.698878743933	17
2	936	595.572213198823	16
2	940	597.234181857146	17
2	942	598.477769295704	16
2	946	604.190083754792	17
2	948	605.709662021105	16
2	952	606.684998220187	17
2	954	610.366819160943	16
2	958	610.816397840359	15
2	962	614.572513496278	16
2	964	616.550713502821	15
2	968	617.304365995319	16
2	970	617.611262426752	17
2	972	618.975574828409	16
2	976	623.8410972559	17
2	978	626.343864572182	16
2	982	626.431195730632	15
2	986	626.851167786946	14
2	990	627.135945193671	15
2	992	628.231308141675	16
2	994	628.267243125001	15
2	998	628.499288386583	16
2	1000	629.943470360419	15
2	1004	630.183775131312	16
2	1006	632.370625841726	15
2	1010	632.386843734331	16
2	1012	635.632420605292	17
2	1014	635.94244967165	16
2	1018	637.707791156541	17
2	1020	637.891392184626	16
2	1024	638.534794293774	17
2	1026	656.84098562237	16
2	1030	659.51382480463	15
2	1034	660.158246814481	16
2	1036	660.308389833221	17
2	1038	660.818069856211	16
2	1042	663.231180843514	15
2	1046	663.53080924039	16
2	1048	663.59659537617	17
2	1050	663.85778497764	16
2	1054	668.454259852946	15
2	1058	668.473379879094	16
2	1060	670.734134608812	17
2	1062	673.935109692107	16
2	1066	676.14832587558	17
2	1068	676.324170490578	16
2	1072	676.815975348479	15
2	1076	678.030222422411	16
2	1078	679.754977428078	15
2	1082	681.22707452429	16
2	1084	682.682443391252	17
2	1086	686.419872424235	16
2	1090	687.719339011525	17
2	1092	693.039809709072	16
2	1096	693.673218143818	17
2	1098	693.765214657757	16
2	1102	694.394401048899	17
2	1104	698.02006655945	16
2	1108	699.538304077523	17
2	1110	710.412670176207	16
2	1114	716.969548102846	15
2	1118	717.053746133511	16
2	1120	720.796138638391	15
2	1124	720.811405254942	16
2	1126	721.014847712606	17
2	1128	721.151386822022	16
2	1132	721.793398289975	17
2	1134	723.040699841441	16
2	1138	725.472856243695	17
2	1140	732.809461538729	16
2	1144	736.019727527938	17
2	1146	737.193453520261	16
2	1150	737.343466020515	17
2	1152	755.164236001394	16
2	1156	755.702983145178	17
2	1158	764.895709302608	16
2	1162	765.423746342465	15
2	1166	766.048530781956	14
2	1170	766.26693591133	13
2	1174	767.880488936035	14
2	1176	768.1383039781	15
2	1178	771.83552051004	16
2	1180	774.70894650514	15
2	1184	775.104318889461	16
2	1186	775.462537957578	17
2	1188	775.501292955414	16
2	1192	776.174522633931	15
2	1196	776.859583169311	14
2	1200	776.868489531347	15
2	1202	778.795913781117	16
2	1204	779.021473506812	15
2	1208	781.819572141384	16
2	1210	785.256043894702	15
2	1214	786.123893940529	16
2	1216	786.140530503817	17
2	1218	789.673198708457	16
2	1222	790.973281723673	17
2	1224	795.339623133485	16
2	1228	799.124716706681	15
2	1232	799.388314193356	16
2	1234	799.800407954203	15
2	1238	800.229954337386	16
2	1240	801.980927297432	15
2	1244	803.747210022764	16
2	1246	810.024443598366	17
2	1248	815.9489654747	16
2	1252	816.569877679133	15
2	1256	816.645669299179	16
2	1258	818.096207369396	15
2	1262	818.751900694485	16
2	1264	819.748291077748	17
2	1266	822.370663420364	16
2	1270	831.95089041693	17
2	1272	838.317766094747	16
2	1276	839.194208097043	17
2	1278	841.730885222009	16
2	1282	843.50374697017	17
2	1284	851.845987914239	16
2	1288	852.91018248302	15
2	1292	853.586248397102	16
2	1294	854.752483442095	17
2	1296	855.26792681894	16
2	1300	858.450799521001	15
2	1304	858.670510520992	16
2	1306	863.885460719419	15
2	1310	866.609662037535	14
2	1314	866.720088314926	15
2	1316	867.854606931288	16
2	1318	869.59842908332	17
2	1320	876.408883358301	16
2	1324	876.442919313818	15
2	1328	880.812703529757	16
2	1330	881.544605536185	15
2	1334	884.681639384504	14
2	1338	885.362021367785	15
2	1340	888.587897424417	16