version 3
run General-15-20221103-10:28:22-6760
attr configname General
attr datetime 20221103-10:28:22
attr datetimef 20221103-102822
attr experiment General
attr inifile block.ini
attr iterationvars "$0=3, $1=10"
attr iterationvarsd 3/10
attr iterationvarsf 3,10-
attr measurement "$0=3, $1=10"
attr network Block
attr processid 6760
attr repetition 0
attr replication #0
attr resultdir results
attr runnumber 15
attr seedset 15
config network Block
config repeat 5
config sim-time-limit 1000s
config warmup-period 100s
config **.alloca.resourceModuleName "\"risorse\""
config **.dealloca.resourceModuleName "\"risorse\""
config **.is.delay exponential(3s)
config **.servente.serviceTime exponential(3s)
config **.dealloca.resourceAmount 2
config **.alloca.resourceAmount 2
config **.risorse.amount 6
config **.sorgente.numJobs (10)
config **.result-recording-modes all

vector 0 Block.servente queueLength:vector ETV
attr interpolationmode sample-hold
attr recordingmode vector
attr title "queue length"
vector 1 Block.servente queueingTime:vector ETV
attr interpolationmode none
attr recordingmode vector
attr title "queueing time at dequeue"
attr unit s
vector 2 Block.alloca queueLength:vector ETV
attr interpolationmode sample-hold
attr recordingmode vector
attr title "queue length"
vector 3 Block.alloca queueingTime:vector ETV
attr interpolationmode none
attr recordingmode vector
attr title "queueing time at dequeue"
attr unit s
vector 4 Block.risorse amount:vector ETV
attr interpolationmode sample-hold
attr recordingmode vector
attr title "available resource"
vector 5 Block.is delayedJobs:vector ETV
attr interpolationmode sample-hold
attr recordingmode vector
attr title "number of delayed jobs"
0	221	101.821511095903	1
0	223	101.821511095903	2
0	227	105.381621507269	1
0	229	105.381621507269	2
0	231	106.5653479854	1
0	233	106.5653479854	2
0	237	106.995908938437	1
0	239	106.995908938437	2
0	245	112.563128355328	1
0	247	112.563128355328	2
0	251	115.835423720347	1
0	253	115.835423720347	2
0	257	119.797396210314	1
0	259	119.797396210314	2
0	261	122.4642166545	1
0	263	122.4642166545	2
0	267	123.001589278312	1
0	269	123.001589278312	2
0	273	124.983798333186	1
0	275	124.983798333186	2
0	281	128.903587781523	1
0	283	128.903587781523	2
0	287	133.480142252679	1
0	289	133.480142252679	2
0	291	134.374211822134	1
0	293	134.374211822134	2
0	295	134.855801883071	1
0	297	134.855801883071	2
0	299	135.016925985927	1
0	301	135.016925985927	2
0	307	136.263477834168	1
0	309	136.263477834168	2
0	315	136.988609848996	1
0	317	136.988609848996	2
0	321	141.352016419775	1
0	323	141.352016419775	2
0	327	143.22126517309	1
0	329	143.22126517309	2
0	335	151.0241302704	1
0	337	151.0241302704	2
0	339	152.263172739723	1
0	341	152.263172739723	2
0	343	152.597120050287	1
0	345	152.597120050287	2
0	353	158.702787824301	1
0	355	158.702787824301	2
0	359	163.797276536209	1
0	361	163.797276536209	2
0	363	164.53233348683	1
0	365	164.53233348683	2
0	371	165.644516132046	1
0	373	165.644516132046	2
0	375	168.569864073542	1
0	377	168.569864073542	2
0	383	170.892265763857	1
0	385	170.892265763857	2
0	389	178.143743323056	1
0	391	178.143743323056	2
0	393	179.133311122928	1
0	395	179.133311122928	2
0	401	181.864566667665	1
0	403	181.864566667665	2
0	405	182.440186133523	1
0	407	182.440186133523	2
0	411	185.690149384697	1
0	413	185.690149384697	2
0	419	188.097998080953	1
0	421	188.097998080953	2
0	423	189.289499985318	1
0	425	189.289499985318	2
0	429	191.200898348296	1
0	431	191.200898348296	2
0	433	191.401204566082	1
0	435	191.401204566082	2
0	441	194.248142442427	1
0	443	194.248142442427	2
0	447	198.72275799177	1
0	449	198.72275799177	2
0	455	208.709692387125	1
0	457	208.709692387125	2
0	461	224.743720086015	1
0	463	224.743720086015	2
0	465	226.045505485309	1
0	467	226.045505485309	2
0	471	228.83084736842	1
0	473	228.83084736842	2
0	475	232.414401874804	1
0	477	232.414401874804	2
0	481	233.210749620475	1
0	483	233.210749620475	2
0	487	233.692265530138	1
0	489	233.692265530138	2
0	491	233.855447605795	1
0	493	233.855447605795	2
0	503	242.275971558219	1
0	505	242.275971558219	2
0	507	242.748534016175	1
0	509	242.748534016175	2
0	513	245.631835422455	1
0	515	245.631835422455	2
0	519	247.029790608496	1
0	521	247.029790608496	2
0	527	250.223279125193	1
0	529	250.223279125193	2
0	531	251.230380509243	1
0	533	251.230380509243	2
0	537	253.144593200397	1
0	539	253.144593200397	2
0	543	253.293273176496	1
0	545	253.293273176496	2
0	549	256.439886832005	1
0	551	256.439886832005	2
0	557	259.933349404338	1
0	559	259.933349404338	2
0	563	269.506472761578	1
0	565	269.506472761578	2
0	567	269.855013563196	1
0	569	269.855013563196	2
0	573	274.784569638482	1
0	575	274.784569638482	2
0	577	275.171618622221	1
0	579	275.171618622221	2
0	587	280.698943493301	1
0	589	280.698943493301	2
0	591	281.363392106737	1
0	593	281.363392106737	2
0	599	288.791935788052	1
0	601	288.791935788052	2
0	605	290.962517845235	1
0	607	290.962517845235	2
0	609	295.448708672709	1
0	611	295.448708672709	2
0	617	298.430926296971	1
0	619	298.430926296971	2
0	621	299.155158049198	1
0	623	299.155158049198	2
0	625	300.833783493388	1
0	627	300.833783493388	2
0	631	308.358992596684	1
0	633	308.358992596684	2
0	641	311.889565473831	1
0	643	311.889565473831	2
0	647	315.278029319046	1
0	649	315.278029319046	2
0	653	319.193785875371	1
0	655	319.193785875371	2
0	657	319.462782864749	1
0	659	319.462782864749	2
0	665	322.618543290507	1
0	667	322.618543290507	2
0	669	325.436060963903	1
0	671	325.436060963903	2
0	675	326.61112886205	1
0	677	326.61112886205	2
0	681	327.163213192332	1
0	683	327.163213192332	2
0	685	328.218854739916	1
0	687	328.218854739916	2
0	689	328.222134410013	1
0	691	328.222134410013	2
0	695	329.079842343937	1
0	697	329.079842343937	2
0	705	332.569859845073	1
0	707	332.569859845073	2
0	709	333.226518209767	1
0	711	333.226518209767	2
0	719	338.912712100208	1
0	721	338.912712100208	2
0	725	344.739813894015	1
0	727	344.739813894015	2
0	731	348.423454491784	1
0	733	348.423454491784	2
0	735	350.736550870229	1
0	737	350.736550870229	2
0	739	350.811288377768	1
0	741	350.811288377768	2
0	745	354.042875140245	1
0	747	354.042875140245	2
0	753	360.752784107777	1
0	755	360.752784107777	2
0	757	361.513897614298	1
0	759	361.513897614298	2
0	767	364.74602993843	1
0	769	364.74602993843	2
0	773	367.765751086286	1
0	775	367.765751086286	2
0	777	372.649370428636	1
0	779	372.649370428636	2
0	785	388.378078167845	1
0	787	388.378078167845	2
0	789	388.474675807129	1
0	791	388.474675807129	2
0	795	390.437690160712	1
0	797	390.437690160712	2
0	801	393.961660600427	1
0	803	393.961660600427	2
0	807	395.313399936606	1
0	809	395.313399936606	2
0	811	395.899370634255	1
0	813	395.899370634255	2
0	815	396.24640140999	1
0	817	396.24640140999	2
0	819	396.411479685112	1
0	821	396.411479685112	2
0	829	398.739748994812	1
0	831	398.739748994812	2
0	839	401.818124032191	1
0	841	401.818124032191	2
0	845	410.867458170932	1
0	847	410.867458170932	2
0	849	410.869222980656	1
0	851	410.869222980656	2
0	857	421.119097127315	1
0	859	421.119097127315	2
0	861	422.087328247871	1
0	863	422.087328247871	2
0	865	422.16474658332	1
0	867	422.16474658332	2
0	869	422.840044993711	1
0	871	422.840044993711	2
0	879	425.703982273357	1
0	881	425.703982273357	2
0	887	429.45629665103	1
0	889	429.45629665103	2
0	893	442.315445145634	1
0	895	442.315445145634	2
0	897	444.154222047534	1
0	899	444.154222047534	2
0	903	448.044516082205	1
0	905	448.044516082205	2
0	911	455.47904813674	1
0	913	455.47904813674	2
0	915	456.791399764999	1
0	917	456.791399764999	2
0	921	457.394407424063	1
0	923	457.394407424063	2
0	927	461.067809950672	1
0	929	461.067809950672	2
0	931	463.47950534223	1
0	933	463.47950534223	2
0	941	481.102239279588	1
0	943	481.102239279588	2
0	945	481.178397069611	1
0	947	481.178397069611	2
0	953	490.46117488934	1
0	955	490.46117488934	2
0	959	497.102660885263	1
0	961	497.102660885263	2
0	963	499.42923049354	1
0	965	499.42923049354	2
0	969	502.063812301537	1
0	971	502.063812301537	2
0	973	504.935520407144	1
0	975	504.935520407144	2
0	979	506.037490999521	1
0	981	506.037490999521	2
0	985	508.927847177524	1
0	987	508.927847177524	2
0	993	513.404669951387	1
0	995	513.404669951387	2
0	1001	522.018059003646	1
0	1003	522.018059003646	2
0	1005	522.280396221108	1
0	1007	522.280396221108	2
0	1009	522.292002371354	1
0	1011	522.292002371354	2
0	1015	522.962464595643	1
0	1017	522.962464595643	2
0	1025	524.86867555866	1
0	1027	524.86867555866	2
0	1031	525.230884199217	1
0	1033	525.230884199217	2
0	1037	527.408427865622	1
0	1039	527.408427865622	2
0	1041	527.614701949302	1
0	1043	527.614701949302	2
0	1045	527.877450027128	1
0	1047	527.877450027128	2
0	1051	531.845759265786	1
0	1053	531.845759265786	2
0	1057	533.818299510207	1
0	1059	533.818299510207	2
0	1067	543.569147503363	1
0	1069	543.569147503363	2
0	1071	547.757683019042	1
0	1073	547.757683019042	2
0	1077	548.744052137873	1
0	1079	548.744052137873	2
0	1083	557.51285892256	1
0	1085	557.51285892256	2
0	1091	569.522934864544	1
0	1093	569.522934864544	2
0	1095	570.432518913532	1
0	1097	570.432518913532	2
0	1101	572.612259055767	1
0	1103	572.612259055767	2
0	1107	573.758045912963	1
0	1109	573.758045912963	2
0	1115	580.783916801492	1
0	1117	580.783916801492	2
0	1119	583.022844380691	1
0	1121	583.022844380691	2
0	1123	584.421752715224	1
0	1125	584.421752715224	2
0	1131	588.449859379521	1
0	1133	588.449859379521	2
0	1135	588.483908443263	1
0	1137	588.483908443263	2
0	1143	589.827340242336	1
0	1145	589.827340242336	2
0	1151	592.110429357498	1
0	1153	592.110429357498	2
0	1157	594.153065863555	1
0	1159	594.153065863555	2
0	1161	594.364649157712	1
0	1163	594.364649157712	2
0	1167	596.29704587661	1
0	1169	596.29704587661	2
0	1175	599.172570929409	1
0	1177	599.172570929409	2
0	1181	602.544400460255	1
0	1183	602.544400460255	2
0	1185	603.471737403914	1
0	1187	603.471737403914	2
0	1189	603.917273553073	1
0	1191	603.917273553073	2
0	1197	610.394494856057	1
0	1199	610.394494856057	2
0	1205	614.989873523762	1
0	1207	614.989873523762	2
0	1209	616.051189016216	1
0	1211	616.051189016216	2
0	1217	618.418032325407	1
0	1219	618.418032325407	2
0	1223	624.369396249844	1
0	1225	624.369396249844	2
0	1229	635.071272171844	1
0	1231	635.071272171844	2
0	1233	636.70652183029	1
0	1235	636.70652183029	2
0	1241	656.071385604027	1
0	1243	656.071385604027	2
0	1245	657.455413945777	1
0	1247	657.455413945777	2
0	1249	658.195887381274	1
0	1251	658.195887381274	2
0	1253	658.909297914604	1
0	1255	658.909297914604	2
0	1261	661.408276274632	1
0	1263	661.408276274632	2
0	1267	661.824698471868	1
0	1269	661.824698471868	2
0	1277	665.72607369757	1
0	1279	665.72607369757	2
0	1283	676.374405587447	1
0	1285	676.374405587447	2
0	1289	684.501323642254	1
0	1291	684.501323642254	2
0	1293	685.067865302249	1
0	1295	685.067865302249	2
0	1299	687.937279767015	1
0	1301	687.937279767015	2
0	1303	690.229272916905	1
0	1305	690.229272916905	2
0	1313	694.102763569889	1
0	1315	694.102763569889	2
0	1319	697.806457916508	1
0	1321	697.806457916508	2
0	1325	700.47310810894	1
0	1327	700.47310810894	2
0	1331	703.75012369089	1
0	1333	703.75012369089	2
0	1337	705.375676142399	1
0	1339	705.375676142399	2
0	1343	711.28763446939	1
0	1345	711.28763446939	2
0	1349	715.940553277174	1
0	1351	715.940553277174	2
0	1355	718.699076137768	1
0	1357	718.699076137768	2
0	1361	723.245061630113	1
0	1363	723.245061630113	2
0	1365	724.11347604203	1
0	1367	724.11347604203	2
0	1369	724.528167337557	1
0	1371	724.528167337557	2
0	1377	725.164068205711	1
0	1379	725.164068205711	2
0	1381	725.622643177304	1
0	1383	725.622643177304	2
0	1387	726.30023252834	1
0	1389	726.30023252834	2
0	1393	726.376542590229	1
0	1395	726.376542590229	2
0	1401	733.851025588743	1
0	1403	733.851025588743	2
0	1407	736.488716289971	1
0	1409	736.488716289971	2
0	1411	737.907920167855	1
0	1413	737.907920167855	2
0	1421	747.460139752174	1
0	1423	747.460139752174	2
0	1427	752.315454994835	1
0	1429	752.315454994835	2
0	1431	755.267034852689	1
0	1433	755.267034852689	2
0	1437	758.838836573037	1
0	1439	758.838836573037	2
0	1445	764.296571334871	1
0	1447	764.296571334871	2
0	1451	770.517342095104	1
0	1453	770.517342095104	2
0	1457	771.409814810591	1
0	1459	771.409814810591	2
0	1461	775.453339593531	1
0	1463	775.453339593531	2
0	1467	779.044229119518	1
0	1469	779.044229119518	2
0	1475	789.370226599322	1
0	1477	789.370226599322	2
0	1479	791.041600412285	1
0	1481	791.041600412285	2
0	1485	795.451976262409	1
0	1487	795.451976262409	2
0	1489	795.473553488452	1
0	1491	795.473553488452	2
0	1497	799.405180474089	1
0	1499	799.405180474089	2
0	1503	801.02249335357	1
0	1505	801.02249335357	2
0	1509	806.878058399386	1
0	1511	806.878058399386	2
0	1517	811.785878785273	1
0	1519	811.785878785273	2
0	1523	814.878769463535	1
0	1525	814.878769463535	2
0	1527	815.733631984741	1
0	1529	815.733631984741	2
0	1531	816.484833217004	1
0	1533	816.484833217004	2
0	1537	817.494646847695	1
0	1539	817.494646847695	2
0	1543	818.694144272592	1
0	1545	818.694144272592	2
0	1547	818.974834902975	1
0	1549	818.974834902975	2
0	1557	820.731601925872	1
0	1559	820.731601925872	2
0	1563	821.879843015256	1
0	1565	821.879843015256	2
0	1571	827.817012217348	1
0	1573	827.817012217348	2
0	1577	828.831657947765	1
0	1579	828.831657947765	2
0	1581	829.009834217242	1
0	1583	829.009834217242	2
0	1589	836.074631612002	1
0	1591	836.074631612002	2
0	1593	836.989512266282	1
0	1595	836.989512266282	2
0	1601	845.776416920577	1
0	1603	845.776416920577	2
0	1605	846.689232764915	1
0	1607	846.689232764915	2
0	1613	853.335178038907	1
0	1615	853.335178038907	2
0	1617	853.768254499903	1
0	1619	853.768254499903	2
0	1623	857.588244876104	1
0	1625	857.588244876104	2
0	1627	857.943043205703	1
0	1629	857.943043205703	2
0	1633	858.796320346842	1
0	1635	858.796320346842	2
0	1639	861.239516502062	1
0	1641	861.239516502062	2
0	1645	864.35531169651	1
0	1647	864.35531169651	2
0	1655	867.429051116212	1
0	1657	867.429051116212	2
0	1659	873.307586831903	1
0	1661	873.307586831903	2
0	1663	874.928230002881	1
0	1665	874.928230002881	2
0	1673	880.802111174938	1
0	1675	880.802111174938	2
0	1677	881.665810007473	1
0	1679	881.665810007473	2
0	1683	884.442979205066	1
0	1685	884.442979205066	2
0	1687	884.463799043051	1
0	1689	884.463799043051	2
0	1691	885.212753379441	1
0	1693	885.212753379441	2
0	1695	885.644924737035	1
0	1697	885.644924737035	2
0	1703	887.130589355494	1
0	1705	887.130589355494	2
0	1715	889.755125935884	1
0	1717	889.755125935884	2
0	1721	889.975415850293	1
0	1723	889.975415850293	2
0	1725	892.742659634797	1
0	1727	892.742659634797	2
0	1731	893.258287455072	1
0	1733	893.258287455072	2
0	1737	898.95460892354	1
0	1739	898.95460892354	2
0	1741	899.195479414022	1
0	1743	899.195479414022	2
0	1745	899.51502340251	1
0	1747	899.51502340251	2
0	1751	900.223263544766	1
0	1753	900.223263544766	2
0	1759	903.238435839332	1
0	1761	903.238435839332	2
0	1767	905.00080092952	1
0	1769	905.00080092952	2
0	1773	907.867584054973	1
0	1775	907.867584054973	2
0	1779	911.463320338474	1
0	1781	911.463320338474	2
0	1787	915.484930943718	1
0	1789	915.484930943718	2
0	1791	916.128439170454	1
0	1793	916.128439170454	2
0	1795	918.786311583202	1
0	1797	918.786311583202	2
0	1801	921.678937512904	1
0	1803	921.678937512904	2
0	1807	922.411217264996	1
0	1809	922.411217264996	2
0	1815	925.428038244069	1
0	1817	925.428038244069	2
0	1821	927.365399487877	1
0	1823	927.365399487877	2
0	1825	930.954260073224	1
0	1827	930.954260073224	2
0	1829	931.117877923898	1
0	1831	931.117877923898	2
0	1837	933.400188888736	1
0	1839	933.400188888736	2
0	1845	935.858897631861	1
0	1847	935.858897631861	2
0	1853	940.856824451365	1
0	1855	940.856824451365	2
0	1859	947.044794775195	1
0	1861	947.044794775195	2
0	1865	948.241207242176	1
0	1867	948.241207242176	2
0	1869	958.370930428511	1
0	1871	958.370930428511	2
0	1873	958.492028958819	1
0	1875	958.492028958819	2
0	1877	958.587609510703	1
0	1879	958.587609510703	2
0	1889	961.537382610119	1
0	1891	961.537382610119	2
0	1895	962.338400855688	1
0	1897	962.338400855688	2
0	1901	966.825094942073	1
0	1903	966.825094942073	2
0	1907	967.712142043884	1
0	1909	967.712142043884	2
0	1913	971.676109210759	1
0	1915	971.676109210759	2
0	1917	972.627587381489	1
0	1919	972.627587381489	2
0	1923	973.17128155809	1
0	1925	973.17128155809	2
0	1927	974.241220940813	1
0	1929	974.241220940813	2
0	1937	982.872613133749	1
0	1939	982.872613133749	2
0	1941	984.74796009077	1
0	1943	984.74796009077	2
0	1945	985.618254257647	1
0	1947	985.618254257647	2
0	1951	989.340726771612	1
0	1953	989.340726771612	2
0	1955	992.303121817081	1
0	1957	992.303121817081	2
0	1963	994.524387038569	1
0	1965	994.524387038569	2
0	1971	997.628799287165	1
0	1973	997.628799287165	2
1	221	101.821511095903	7.923618028435
1	227	105.381621507269	8.817836133822
1	231	106.5653479854	4.743836889497
1	237	106.995908938437	1.614287431168
1	245	112.563128355328	5.997780369928
1	251	115.835423720347	8.83951478191
1	257	119.797396210314	7.234267854986
1	261	122.4642166545	6.628792934153
1	267	123.001589278312	3.204193067998
1	273	124.983798333186	2.519581678686
1	281	128.903587781523	5.901998503211
1	287	133.480142252679	8.496343919493
1	291	134.374211822134	5.470624040611
1	295	134.855801883071	1.375659630392
1	299	135.016925985927	0.642714163793
1	307	136.263477834168	1.407675951097
1	315	136.988609848996	1.971683863069
1	321	141.352016419775	5.088538585607
1	327	143.22126517309	6.232655324094
1	335	151.0241302704	9.672113850625
1	339	152.263172739723	9.041907566633
1	343	152.597120050287	1.572989779887
1	353	158.702787824301	6.439615084578
1	359	163.797276536209	11.200156485922
1	363	164.53233348683	5.829545662529
1	371	165.644516132046	1.847239595837
1	375	168.569864073542	4.037530586712
1	383	170.892265763857	5.247749631811
1	389	178.143743323056	9.573879249514
1	393	179.133311122928	8.241045359071
1	401	181.864566667665	3.720823344609
1	405	182.440186133523	3.306875010595
1	411	185.690149384697	3.825582717032
1	419	188.097998080953	5.65781194743
1	423	189.289499985318	3.599350600621
1	429	191.200898348296	3.102900267343
1	433	191.401204566082	2.111704580764
1	441	194.248142442427	3.047244094131
1	447	198.72275799177	7.321553425688
1	455	208.709692387125	14.461549944698
1	461	224.743720086015	26.020962094245
1	465	226.045505485309	17.335813098184
1	471	228.83084736842	4.087127282405
1	475	232.414401874804	6.368896389495
1	481	233.210749620475	4.379902252055
1	487	233.692265530138	1.277863655334
1	491	233.855447605795	0.64469798532
1	503	242.275971558219	8.583706028081
1	507	242.748534016175	8.89308641038
1	513	245.631835422455	3.355863864236
1	519	247.029790608496	4.281256592321
1	527	250.223279125193	4.591443702738
1	531	251.230380509243	4.200589900747
1	537	253.144593200397	2.921314075204
1	543	253.293273176496	2.062892667253
1	549	256.439886832005	3.295293631608
1	557	259.933349404338	6.640076227842
1	563	269.506472761578	13.066585929573
1	567	269.855013563196	9.921664158858
1	573	274.784569638482	5.278096876904
1	577	275.171618622221	5.316605059025
1	587	280.698943493301	5.914373854819
1	591	281.363392106737	6.191773484516
1	599	288.791935788052	8.092992294751
1	605	290.962517845235	9.599125738498
1	609	295.448708672709	6.656772884657
1	617	298.430926296971	7.468408451736
1	621	299.155158049198	3.706449376489
1	625	300.833783493388	2.402857196417
1	631	308.358992596684	9.203834547486
1	641	311.889565473831	11.055781980443
1	647	315.278029319046	6.919036722362
1	653	319.193785875371	7.30422040154
1	657	319.462782864749	4.184753545703
1	665	322.618543290507	3.424757415136
1	669	325.436060963903	5.973278099154
1	675	326.61112886205	3.992585571543
1	681	327.163213192332	1.727152228429
1	685	328.218854739916	1.607725877866
1	689	328.222134410013	1.058921217681
1	695	329.079842343937	0.860987604021
1	705	332.569859845073	4.34772543506
1	709	333.226518209767	4.14667586583
1	719	338.912712100208	6.342852255135
1	725	344.739813894015	11.513295684248
1	731	348.423454491784	9.510742391576
1	735	350.736550870229	5.996736976214
1	739	350.811288377768	2.387833885984
1	745	354.042875140245	3.306324270016
1	753	360.752784107777	9.941495730009
1	757	361.513897614298	7.471022474053
1	767	364.74602993843	3.993245830653
1	773	367.765751086286	6.251853471988
1	777	372.649370428636	7.903340490206
1	785	388.378078167845	20.612327081559
1	789	388.474675807129	15.825305378493
1	795	390.437690160712	2.059611992867
1	801	393.961660600427	5.486984793298
1	807	395.313399936606	4.875709775894
1	811	395.899370634255	1.937710033828
1	815	396.24640140999	0.933001473384
1	819	396.411479685112	0.512109050857
1	829	398.739748994812	2.493347584822
1	839	401.818124032191	5.406644347079
1	845	410.867458170932	12.12770917612
1	849	410.869222980656	9.051098948465
1	857	421.119097127315	10.251638956383
1	861	422.087328247871	11.218105267215
1	865	422.16474658332	1.045649456005
1	869	422.840044993711	0.75271674584
1	879	425.703982273357	3.539235690037
1	887	429.45629665103	6.616251657319
1	893	442.315445145634	16.611462872277
1	897	444.154222047534	14.697925396504
1	903	448.044516082205	5.729070936571
1	911	455.47904813674	11.324826089206
1	915	456.791399764999	8.746883682794
1	921	457.394407424063	1.915359287323
1	927	461.067809950672	4.276410185673
1	931	463.47950534223	6.085097918167
1	941	481.102239279588	20.034429328916
1	945	481.178397069611	17.698891727381
1	953	490.46117488934	9.358935609752
1	959	497.102660885263	15.924263815652
1	963	499.42923049354	8.9680556042
1	969	502.063812301537	4.961151416274
1	973	504.935520407144	5.506289913604
1	979	506.037490999521	3.973678697984
1	985	508.927847177524	3.99232677038
1	993	513.404669951387	7.367178951866
1	1001	522.018059003646	13.090211826122
1	1005	522.280396221108	8.875726269721
1	1009	522.292002371354	0.273943367708
1	1015	522.962464595643	0.682068374535
1	1025	524.86867555866	2.576673187306
1	1031	525.230884199217	2.268419603574
1	1037	527.408427865622	2.539752306962
1	1041	527.614701949302	2.383817750085
1	1045	527.877450027128	0.469022161506
1	1051	531.845759265786	4.231057316484
1	1057	533.818299510207	5.940849483079
1	1067	543.569147503363	11.723388237577
1	1071	547.757683019042	13.939383508835
1	1077	548.744052137873	5.17490463451
1	1083	557.51285892256	9.755175903518
1	1091	569.522934864544	20.778882726671
1	1095	570.432518913532	12.919659990972
1	1101	572.612259055767	3.089324191223
1	1107	573.758045912963	3.325526999431
1	1115	580.783916801492	8.171657745725
1	1119	583.022844380691	9.264798467728
1	1123	584.421752715224	3.637835913732
1	1131	588.449859379521	5.42701499883
1	1135	588.483908443263	4.062155728039
1	1143	589.827340242336	1.377480862815
1	1151	592.110429357498	3.626520914235
1	1157	594.153065863555	4.325725621219
1	1161	594.364649157712	2.254219800214
1	1167	596.29704587661	2.143980013055
1	1175	599.172570929409	4.807921771697
1	1181	602.544400460255	6.247354583645
1	1185	603.471737403914	4.299166474505
1	1189	603.917273553073	1.372873092818
1	1197	610.394494856057	6.922757452143
1	1205	614.989873523762	11.072599970689
1	1209	616.051189016216	5.656694160159
1	1217	618.418032325407	3.428158801645
1	1223	624.369396249844	8.318207233628
1	1229	635.071272171844	16.653239846437
1	1233	636.70652183029	12.337125580446
1	1241	656.071385604027	21.000113432183
1	1245	657.455413945777	20.748892115487
1	1249	658.195887381274	2.124501777247
1	1253	658.909297914604	1.453883968827
1	1261	661.408276274632	3.212388893358
1	1267	661.824698471868	2.915400557264
1	1277	665.72607369757	4.317797422938
1	1283	676.374405587447	14.549707115579
1	1289	684.501323642254	18.775249944684
1	1293	685.067865302249	8.693459714802
1	1299	687.937279767015	3.435956124761
1	1303	690.229272916905	5.161407614656
1	1313	694.102763569889	6.165483802874
1	1319	697.806457916508	7.577184999603
1	1325	700.47310810894	6.370344539051
1	1331	703.75012369089	5.943665774382
1	1337	705.375676142399	4.902568033459
1	1343	711.28763446939	7.5375107785
1	1349	715.940553277174	10.564877134775
1	1355	718.699076137768	7.411441668378
1	1361	723.245061630113	7.304508352939
1	1365	724.11347604203	5.414399904262
1	1369	724.528167337557	1.283105707444
1	1377	725.164068205711	1.050592163681
1	1381	725.622643177304	1.094475839747
1	1387	726.30023252834	1.136164322629
1	1393	726.376542590229	0.753899412925
1	1401	733.851025588743	7.550793060403
1	1407	736.488716289971	10.112173699742
1	1411	737.907920167855	4.056894579112
1	1421	747.460139752174	10.971423462203
1	1427	752.315454994835	14.40753482698
1	1431	755.267034852689	7.806895100515
1	1437	758.838836573037	6.523381578202
1	1445	764.296571334871	9.029536482182
1	1451	770.517342095104	11.678505522067
1	1457	771.409814810591	7.11324347572
1	1461	775.453339593531	4.935997498427
1	1467	779.044229119518	7.634414308927
1	1475	789.370226599322	13.916887005791
1	1479	791.041600412285	11.997371292767
1	1485	795.451976262409	6.081749663087
1	1489	795.473553488452	4.431953076167
1	1497	799.405180474089	3.95320421168
1	1503	801.02249335357	5.548939865118
1	1509	806.878058399386	7.472877925297
1	1517	811.785878785273	10.763385431703
1	1523	814.878769463535	8.000711064149
1	1527	815.733631984741	3.947753199468
1	1531	816.484833217004	1.606063753469
1	1537	817.494646847695	1.761014862954
1	1543	818.694144272592	2.209311055588
1	1547	818.974834902975	1.48018805528
1	1557	820.731601925872	2.03745765328
1	1563	821.879843015256	2.905008112281
1	1571	827.817012217348	7.085410291476
1	1577	828.831657947765	6.951814932509
1	1581	829.009834217242	1.192821999894
1	1589	836.074631612002	7.242973664237
1	1593	836.989512266282	7.97967804904
1	1601	845.776416920577	9.701785308575
1	1605	846.689232764915	9.699720498633
1	1613	853.335178038907	7.55876111833
1	1617	853.768254499903	7.079021734988
1	1623	857.588244876104	4.253066837197
1	1627	857.943043205703	4.1747887058
1	1633	858.796320346842	1.208075470738
1	1639	861.239516502062	3.296473296359
1	1645	864.35531169651	5.558991349668
1	1655	867.429051116212	6.18953461415
1	1659	873.307586831903	8.952275135393
1	1663	874.928230002881	7.499178886669
1	1673	880.802111174938	7.494524343035
1	1677	881.665810007473	6.737580004592
1	1683	884.442979205066	3.640868030128
1	1687	884.463799043051	2.797989035578
1	1691	885.212753379441	0.769774174375
1	1695	885.644924737035	1.181125693984
1	1703	887.130589355494	1.917835976053
1	1715	889.755125935884	4.110201198849
1	1721	889.975415850293	2.844826494799
1	1725	892.742659634797	2.987533698913
1	1731	893.258287455072	3.282871604779
1	1737	898.95460892354	6.211949288743
1	1741	899.195479414022	5.93719195895
1	1745	899.51502340251	0.56041447897
1	1751	900.223263544766	1.027784130744
1	1759	903.238435839332	3.723412436822
1	1767	905.00080092952	4.777537384754
1	1773	907.867584054973	4.629148215641
1	1779	911.463320338474	6.462519408954
1	1787	915.484930943718	7.617346888745
1	1791	916.128439170454	4.66511883198
1	1795	918.786311583202	3.301380639484
1	1801	921.678937512904	5.55049834245
1	1807	922.411217264996	3.624905681794
1	1815	925.428038244069	3.749100731165
1	1821	927.365399487877	4.954182222881
1	1825	930.954260073224	5.526221829155
1	1829	931.117877923898	3.752478436021
1	1837	933.400188888736	2.445928815512
1	1845	935.858897631861	4.741019707963
1	1853	940.856824451365	7.456635562629
1	1859	947.044794775195	11.185897143334
1	1865	948.241207242176	7.384382790811
1	1869	958.370930428511	11.326135653316
1	1873	958.492028958819	10.250821716643
1	1877	958.587609510703	0.216679082192
1	1889	961.537382610119	3.0453536513
1	1895	962.338400855688	3.750791344985
1	1901	966.825094942073	5.287712331954
1	1907	967.712142043884	5.373741188196
1	1913	971.676109210759	4.851014268686
1	1917	972.627587381489	4.915445337605
1	1923	973.17128155809	1.495172347331
1	1927	974.241220940813	1.613633559324
1	1937	982.872613133749	9.701331575659
1	1941	984.74796009077	10.506739149957
1	1945	985.618254257647	2.745641123898
1	1951	989.340726771612	4.592766680842
1	1955	992.303121817081	6.684867559434
1	1963	994.524387038569	5.183660266957
1	1971	997.628799287165	5.325677470084
2	222	101.821511095903	6
2	226	103.370244098608	7
2	228	105.381621507269	6
2	232	106.5653479854	5
2	236	106.866578381929	6
2	238	106.995908938437	5
2	242	107.244965170509	6
2	244	108.128933183555	7
2	246	112.563128355328	6
2	250	112.738658378894	7
2	252	115.835423720347	6
2	256	116.080130776339	7
2	258	119.797396210314	6
2	262	122.4642166545	5
2	266	122.55299424819	6
2	268	123.001589278312	5
2	272	123.366401141948	6
2	274	124.983798333186	5
2	278	125.077986877096	6
2	280	125.410682168395	7
2	282	128.903587781523	6
2	286	128.997303340642	7
2	288	133.480142252679	6
2	292	134.374211822134	5
2	296	134.855801883071	4
2	300	135.016925985927	3
2	304	136.145973598044	4
2	306	136.217310824677	5
2	308	136.263477834168	4
2	312	136.540844280911	5
2	314	136.915800447528	6
2	316	136.988609848996	5
2	320	140.445087777797	6
2	322	141.352016419775	5
2	326	142.649441098391	6
2	328	143.22126517309	5
2	332	145.875604187575	6
2	334	147.643838125521	7
2	336	151.0241302704	6
2	340	152.263172739723	5
2	344	152.597120050287	4
2	348	153.536440935036	5
2	350	154.0234570579	6
2	352	155.7318914594	7
2	354	158.702787824301	6
2	358	158.775372143922	7
2	360	163.797276536209	6
2	364	164.53233348683	5
2	368	164.840860813748	6
2	370	165.189735182409	7
2	372	165.644516132046	6
2	376	168.569864073542	5
2	380	169.545114351916	6
2	382	170.415337548521	7
2	384	170.892265763857	6
2	388	173.097277875624	7
2	390	178.143743323056	6
2	394	179.133311122928	5
2	398	180.794981800929	6
2	400	181.605189672867	7
2	402	181.864566667665	6
2	406	182.440186133523	5
2	410	184.63960050242	6
2	412	185.690149384697	5
2	416	187.493884687142	6
2	418	187.649429049881	7
2	420	188.097998080953	6
2	424	189.289499985318	5
2	428	190.036421134574	6
2	430	191.200898348296	5
2	434	191.401204566082	4
2	438	191.437453050974	5
2	440	191.53980869232	6
2	442	194.248142442427	5
2	446	194.664299907834	6
2	448	198.72275799177	5
2	452	201.749107327247	6
2	454	201.759232442877	7
2	456	208.709692387125	6
2	460	209.454161378573	7
2	462	224.743720086015	6
2	466	226.045505485309	5
2	470	227.122970260993	6
2	472	228.83084736842	5
2	476	232.414401874804	4