version 3
run General-26-20221103-10:28:22-6760
attr configname General
attr datetime 20221103-10:28:22
attr datetimef 20221103-102822
attr experiment General
attr inifile block.ini
attr iterationvars "$0=3, $1=30"
attr iterationvarsd 3/30
attr iterationvarsf 3,30-
attr measurement "$0=3, $1=30"
attr network Block
attr processid 6760
attr repetition 1
attr replication #1
attr resultdir results
attr runnumber 26
attr seedset 26
config network Block
config repeat 5
config sim-time-limit 1000s
config warmup-period 100s
config **.alloca.resourceModuleName "\"risorse\""
config **.dealloca.resourceModuleName "\"risorse\""
config **.is.delay exponential(3s)
config **.servente.serviceTime exponential(3s)
config **.dealloca.resourceAmount 2
config **.alloca.resourceAmount 2
config **.risorse.amount 6
config **.sorgente.numJobs (30)
config **.result-recording-modes all

vector 0 Block.is delayedJobs:vector ETV
attr interpolationmode sample-hold
attr recordingmode vector
attr title "number of delayed jobs"
vector 1 Block.alloca queueLength:vector ETV
attr interpolationmode sample-hold
attr recordingmode vector
attr title "queue length"
vector 2 Block.servente queueLength:vector ETV
attr interpolationmode sample-hold
attr recordingmode vector
attr title "queue length"
vector 3 Block.servente queueingTime:vector ETV
attr interpolationmode none
attr recordingmode vector
attr title "queueing time at dequeue"
attr unit s
vector 4 Block.alloca queueingTime:vector ETV
attr interpolationmode none
attr recordingmode vector
attr title "queueing time at dequeue"
attr unit s
vector 5 Block.risorse amount:vector ETV
attr interpolationmode sample-hold
attr recordingmode vector
attr title "available resource"
0	275	103.876222452319	2
0	280	104.502449570999	3
0	281	104.659351133348	2
0	286	105.425613485099	3
0	287	105.766128024319	2
0	292	106.142235769004	3
0	293	106.831518006253	2
0	295	110.550933566005	1
0	300	110.878841379833	2
0	304	111.088654081991	3
0	305	111.417478470208	2
0	307	111.700634269248	1
0	309	111.876644705498	0
0	314	113.598935591147	1
0	315	114.217416312166	0
0	320	121.075079383908	1
0	324	121.741179427587	2
0	325	125.266784547416	1
0	330	127.701741566711	2
0	331	130.907449665979	1
0	336	131.115321163692	2
0	340	131.307637245861	3
0	341	131.734952146017	2
0	346	132.172336954908	3
0	347	132.392011060681	2
0	349	132.427210802919	1
0	351	133.46024543709	0
0	356	135.611631396869	1
0	357	137.833856126067	0
0	362	137.835001808898	1
0	363	138.266124975582	0
0	368	141.487568341615	1
0	369	142.151845328024	0
0	374	142.746464424682	1
0	375	143.089988793104	0
0	380	149.431374018395	1
0	381	152.436309078689	0
0	386	152.593928190556	1
0	390	153.367059061982	2
0	391	155.608981186404	1
0	396	157.124157602511	2
0	397	158.356271619242	1
0	399	161.698489100537	0
0	404	163.903363768851	1
0	405	166.033071699269	0
0	410	166.042601313248	1
0	414	170.501259700831	2
0	418	170.933158346712	3
0	419	172.294224975736	2
0	421	173.510596744223	1
0	426	174.206131713128	2
0	430	176.012133327313	3
0	434	177.461553132777	4
0	435	177.580255120733	3
0	437	180.002510960031	2
0	439	180.588129219613	1
0	444	180.749406297711	2
0	448	183.323043478194	3
0	452	184.371250332748	4
0	453	184.624972000047	3
0	458	185.133658587373	4
0	459	185.347826985268	3
0	461	185.36106807794	2
0	463	186.263102577014	1
0	468	189.719701844602	2
0	472	190.471413679817	3
0	476	191.71265091619	4
0	480	192.396424928997	5
0	481	192.473254380646	4
0	483	192.662750895816	3
0	485	192.786103785431	2
0	490	192.908481158257	3
0	491	193.43079668065	2
0	496	193.903624973547	3
0	497	194.490267870257	2
0	499	194.838533431308	1
0	504	197.329382441915	2
0	508	198.44190398364	3
0	509	200.297867807042	2
0	511	201.147741587862	1
0	513	203.300453649752	0
0	518	204.030007926115	1
0	522	205.023443791282	2
0	523	206.838355817096	1
0	525	207.647900395871	0
0	530	208.363176793155	1
0	534	209.211491796925	2
0	535	209.401961502859	1
0	537	212.466157528142	0
0	542	216.56008695089	1
0	543	216.767331680826	0
0	548	217.589129428004	1
0	549	218.643725631645	0
0	554	220.190413134171	1
0	555	223.032554050506	0
0	560	223.698400895005	1
0	561	223.738971526681	0
0	566	232.954835139188	1
0	567	234.399907979855	0
0	572	234.795992043732	1
0	576	235.702677634339	2
0	580	237.723300466868	3
0	581	238.210736801066	2
0	583	238.614592358746	1
0	588	241.071697227087	2
0	589	241.400168635418	1
0	594	242.286872886361	2
0	595	243.046384918161	1
0	600	243.340345026375	2
0	601	245.772977267173	1
0	606	246.914337867864	2
0	607	246.929509093962	1
0	609	247.671591096886	0
0	614	247.833921681052	1
0	618	248.427203352139	2
0	619	249.194811572557	1
0	624	249.644143021143	2
0	628	250.5284499658	3
0	629	250.611491221112	2
0	634	250.829638215607	3
0	635	251.097044150955	2
0	637	251.566410652401	1
0	642	252.160335186125	2
0	643	252.783843429643	1
0	645	252.829248250944	0
0	650	253.509837036336	1
0	651	254.423470437386	0
0	656	258.019025330171	1
0	657	261.126330790245	0
0	662	274.997816769387	1
0	663	275.770696722834	0
0	668	279.294652900368	1
0	669	281.458998297364	0
0	674	281.935579488721	1
0	678	283.524257702332	2
0	682	284.944924799156	3
0	683	285.49892121908	2
0	688	286.826000286533	3
0	692	288.550919137927	4
0	693	289.827669389654	3
0	695	289.880417729039	2
0	697	293.75034774843	1
0	699	294.39282614725	0
0	704	302.116430432736	1
0	708	303.521562715713	2
0	709	303.843991423342	1
0	714	305.946033929169	2
0	715	306.190418828035	1
0	720	306.571123087376	2
0	721	308.992867838535	1
0	726	309.929742872584	2
0	727	310.560885626014	1
0	729	312.839633797569	0
0	734	314.023900359354	1
0	735	316.580809168595	0
0	740	318.776460709737	1
0	741	322.774830544629	0
0	746	325.416914032805	1
0	750	329.444690921746	2
0	751	329.872369359332	1
0	756	335.570195225936	2
0	757	335.931455516028	1
0	762	336.221088877498	2
0	763	338.705183176669	1
0	765	339.849074772423	0
0	770	344.754860741135	1
0	771	344.935443329331	0
0	776	345.445580609759	1
0	777	347.905366340161	0
0	782	349.044969266299	1
0	786	349.362660897716	2
0	787	349.664863660108	1
0	792	349.823692836589	2
0	793	351.039176686095	1
0	798	352.517619632878	2
0	799	352.704223546683	1
0	804	354.610819897029	2
0	805	354.659007164382	1
0	810	355.573064653967	2
0	811	357.075133467293	1
0	813	357.258599552521	0
0	818	358.086309724126	1
0	819	359.010631367129	0
0	824	360.12165241335	1
0	828	360.385118856283	2
0	829	360.604152640652	1
0	834	360.666630970527	2
0	835	360.936813888179	1
0	837	362.157846914236	0
0	842	363.646663145558	1
0	846	363.984188883971	2
0	847	364.482076876712	1
0	852	369.67215163755	2
0	856	370.549597715423	3
0	857	371.058875865559	2
0	859	371.177755166183	1
0	861	372.35667250049	0
0	866	377.641961258108	1
0	870	380.218966801723	2
0	871	380.688966604294	1
0	873	382.514908938592	0
0	878	382.526450788009	1
0	879	388.612783122178	0
0	884	393.696553248761	1
0	885	394.736320811834	0
0	890	397.924488880098	1
0	891	398.088340576355	0
0	896	398.214178197349	1
0	897	400.737255639767	0
0	902	402.344323891611	1
0	906	402.373432748947	2
0	907	402.947263927848	1
0	909	403.074074293349	0
0	914	403.854576586028	1
0	915	404.893770093752	0
0	920	409.460359997536	1
0	924	412.550422299883	2
0	928	413.113011201201	3
0	929	413.148686243306	2
0	931	413.372271430432	1
0	936	415.762260445148	2
0	940	419.074430120185	3
0	941	419.758913466719	2
0	943	421.659594643448	1
0	948	423.370965676614	2
0	952	426.393892378516	3
0	953	427.281618435401	2
0	955	430.092474466012	1
0	960	431.461168596549	2
0	964	432.108922015054	3
0	965	434.966002405703	2
0	967	437.087288596466	1
0	972	437.858078494734	2
0	973	438.264914346556	1
0	978	438.717501585198	2
0	979	439.933780010965	1
0	984	447.006232980721	2
0	988	447.812656720496	3
0	989	448.150594697594	2
0	994	448.503101928863	3
0	998	449.720772689046	4
0	999	450.406624020164	3
0	1001	450.9682081936	2
0	1006	451.167849183575	3
0	1010	451.930080606363	4
0	1014	453.491542273703	5
0	1015	453.599325088561	4
0	1017	453.953615314155	3
0	1019	454.005572648021	2
0	1021	455.866259579015	1
0	1026	456.539570504692	2
0	1027	456.812722959186	1
0	1032	457.177985799551	2
0	1033	458.741643947247	1
0	1038	459.684162811943	2
0	1039	461.241764093538	1
0	1044	463.290639302162	2
0	1045	466.347060796617	1
0	1047	467.592687627261	0
0	1052	475.513926523126	1
0	1056	477.524321411813	2
0	1060	478.092441782463	3
0	1061	481.200937467286	2
0	1063	481.230412838002	1
0	1068	483.396625092549	2
0	1069	484.485574059119	1
0	1074	485.355913590579	2
0	1075	485.950906064241	1
0	1077	490.233901692676	0
0	1082	496.159058748007	1
0	1083	497.789068012124	0
0	1088	500.133986825674	1
0	1092	502.177415393661	2
0	1093	503.370720437762	1
0	1098	504.616659105103	2
0	1102	505.018083579872	3
0	1103	505.587088621066	2
0	1105	505.992634872177	1
0	1107	507.190267718907	0
0	1112	507.476957845992	1
0	1113	507.783742680379	0
0	1118	509.664443552706	1
0	1119	510.136668558376	0
0	1124	512.603373653864	1
0	1125	514.465822284471	0
0	1130	522.902527118944	1
0	1134	524.315651417758	2
0	1138	524.827113508633	3
0	1139	525.207820156709	2
0	1144	525.449716772853	3
0	1145	525.876281011717	2
0	1147	527.026411133183	1
0	1149	529.889596148057	0
0	1154	531.052270590501	1
0	1158	531.170007945744	2
0	1159	531.723642769296	1
0	1164	533.776499627757	2
0	1168	534.02624055703	3
0	1172	534.048054068604	4
0	1173	534.15171782905	3
0	1178	534.536028844557	4
0	1179	535.36860690816	3
0	1181	535.900356498369	2
0	1183	536.614196204082	1
0	1185	539.197117674854	0
0	1190	541.703240558741	1
0	1194	541.71588649024	2
0	1195	541.734047415509	1
0	1197	542.187950839337	0
0	1202	550.325088949926	1
0	1203	550.641667411373	0
0	1208	550.971424760558	1
0	1212	552.801177171855	2
0	1216	552.81284599526	3
0	1217	553.146106849629	2
0	1219	555.203527314391	1
0	1224	555.670903212376	2
0	1225	555.9422561111	1
0	1227	556.232662787623	0
0	1232	560.127828023039	1
0	1236	561.217774874836	2
0	1237	561.446446357634	1
0	1242	562.625656242224	2
0	1243	564.081622463331	1
0	1245	566.878733140831	0
0	1250	568.48222582883	1
0	1251	569.689151422151	0
0	1256	577.257582025181	1
0	1260	577.891897818827	2
0	1264	578.730738917076	3
0	1265	578.892230457433	2
0	1267	579.204244612763	1
0	1269	581.994503553423	0
0	1274	583.909696374055	1
0	1278	585.145410724091	2
0	1279	585.162442945465	1
0	1281	586.609117549105	0
0	1286	591.566093087086	1
0	1290	592.091645866541	2
0	1291	592.818895690304	1
0	1296	598.244038947916	2
0	1297	599.450780585405	1
0	1299	599.703032457018	0
0	1304	602.780984142939	1
0	1308	603.376741432557	2
0	1309	606.794251051421	1
0	1314	606.85793234297	2
0	1318	607.437674917157	3
0	1319	607.466170008413	2
0	1321	607.633285423495	1
0	1323	607.945799871436	0
0	1328	613.988452708212	1
0	1332	615.393822435569	2
0	1333	618.637478142826	1
0	1335	619.115294548498	0
0	1340	619.233987981906	1
0	1344	619.608061325823	2
0	1348	620.044756202305	3
0	1349	620.7269899607	2
0	1351	621.10323749862	1
0	1356	621.689406474266	2
0	1360	625.18716552006	3
0	1364	625.609530496815	4
0	1365	625.745648588904	3
0	1367	626.265929625442	2
0	1372	626.473569092595	3
0	1373	626.674757428643	2
0	1378	626.878439524338	3
0	1379	632.206731127131	2
0	1381	633.977186391942	1
0	1386	639.567934694542	2
0	1387	639.707256912167	1
0	1392	640.375109162317	2
0	1393	642.632938097551	1
0	1395	645.72840388072	0
0	1400	648.839439663788	1
0	1401	649.434663258941	0
0	1406	652.170025861661	1
0	1410	652.571822950461	2
0	1411	652.701135347506	1
0	1416	655.855340023309	2
0	1420	656.027121496609	3
0	1421	656.128314310118	2
0	1423	656.266636115004	1
0	1428	657.90508038372	2
0	1429	657.971253553877	1
0	1431	659.022390606415	0
0	1436	660.794540511491	1
0	1440	662.637271436606	2
0	1441	665.130886283638	1
0	1443	665.608818623915	0
0	1448	666.648388087402	1
0	1452	670.612829496651	2
0	1453	671.506814414072	1
0	1458	672.405170867014	2
0	1459	673.515088856459	1
0	1461	673.652774548894	0
0	1466	676.789298467627	1
0	1467	677.553460543672	0
0	1472	678.583619131037	1
0	1473	678.643318445304	0
0	1478	679.580502733203	1
0	1482	680.021607231081	2
0	1486	680.696830495004	3
0	1487	680.872251249398	2
0	1492	682.475492525137	3
0	1496	683.619498584668	4
0	1497	683.675329532457	3
0	1499	684.618724499001	2
0	1504	686.746236343778	3
0	1505	687.13819658316	2
0	1507	687.889159665181	1
0	1509	688.155369934997	0
0	1514	689.933530716894	1
0	1515	691.853397623884	0
0	1520	694.420847128425	1
0	1524	698.227321093135	2
0	1525	698.30908331077	1
0	1530	699.191056799407	2
0	1531	699.560504195413	1
0	1536	702.02043260703	2
0	1537	703.021130149808	1
0	1539	703.589964321457	0
0	1544	708.055439031234	1
0	1545	708.217610272616	0
0	1550	714.13319236853	1
0	1554	716.045467460244	2
0	1558	716.814266541283	3
0	1562	716.888952626716	4
0	1563	717.386783910251	3
0	1565	717.971801349284	2
0	1570	719.624734211905	3
0	1571	721.271310526436	2
0	1573	721.472109130553	1
0	1578	722.430531711491	2
0	1582	722.730664193636	3
0	1586	723.491090901403	4
0	1590	723.656315194239	5
0	1594	723.737321892071	6
0	1595	723.879921410877	5
0	1597	724.51728492969	4
0	1599	724.544346289528	3
0	1604	725.508201270021	4
0	1605	725.520914630878	3
0	1607	725.764109464612	2
0	1609	726.398588560753	1
0	1614	726.437062406175	2
0	1615	726.668349263113	1
0	1617	727.774276734204	0
0	1622	732.056859974575	1
0	1623	732.144542937528	0
0	1628	732.251683918295	1
0	1632	736.732666620672	2
0	1633	737.917997410135	1
0	1638	738.422964134178	2
0	1639	738.602382488779	1
0	1644	739.092101324803	2
0	1648	740.444787046087	3
0	1649	741.262179582761	2
0	1654	747.136459264964	3
0	1658	748.35479485674	4
0	1659	748.88457904789	3
0	1664	748.913465980014	4
0	1665	751.369876762263	3
0	1667	751.526471633936	2
0	1672	751.588357070949	3
0	1673	753.381118805343	2
0	1678	754.523986852824	3
0	1679	755.023618420858	2
0	1681	756.469081952077	1
0	1683	759.16077214516	0
0	1688	760.929396352204	1
0	1689	761.377675770188	0
0	1694	767.174596411316	1
0	1698	768.427680504513	2
0	1702	768.492196798663	3
0	1706	768.970874242775	4
0	1707	769.831985543654	3
0	1709	769.899346713796	2
0	1711	770.681521777007	1
0	1713	771.110916495332	0
0	1718	774.146514180117	1
0	1722	774.358242518564	2
0	1723	774.629116360025	1
0	1728	777.013749694228	2
0	1729	777.300681206614	1
0	1734	778.768451064484	2
0	1735	778.984432841052	1
0	1740	779.378804040693	2
0	1741	779.546257629934	1
0	1746	781.289815124375	2
0	1747	783.700894696019	1
0	1752	784.492670632606	2
0	1753	785.113891977207	1
0	1755	785.275692626594	0
0	1760	788.008121715597	1
0	1761	789.061854965524	0
0	1766	790.351738059459	1
0	1767	791.700815077357	0
0	1772	792.4091927898	1
0	1776	795.419379589633	2
0	1780	796.141497828926	3
0	1781	796.564041066606	2
0	1783	799.262888834378	1
0	1788	802.522351356841	2
0	1792	803.162654042909	3
0	1793	804.332667627581	2
0	1795	804.812413668238	1
0	1800	806.951226583836	2
0	1801	814.246488431378	1
0	1806	816.426174874433	2
0	1810	816.455947794527	3
0	1811	816.611042911843	2
0	1813	817.185413030683	1
0	1818	818.066777349225	2
0	1819	819.151816448927	1
0	1824	821.483230572497	2
0	1828	822.093984768914	3
0	1832	822.902931427541	4
0	1833	823.067550860371	3
0	1835	823.251415486418	2
0	1837	824.323396990862	1
0	1839	824.822615287205	0
0	1844	825.190120869304	1
0	1845	826.020939022592	0
0	1850	826.80805813167	1
0	1854	830.890562304787	2
0	1858	831.231249102591	3
0	1859	831.784080175907	2
0	1864	832.768264000785	3
0	1865	834.80302918113	2
0	1867	835.352407393498	1
0	1872	836.163381300815	2
0	1873	836.220974225883	1
0	1875	838.727110159868	0
0	1880	841.468792481279	1
0	1881	841.907749799698	0
0	1886	842.544053402033	1
0	1887	845.982946385291	0
0	1892	848.745629946662	1
0	1893	848.922022304025	0
0	1898	850.545273537922	1
0	1899	854.288970823376	0
0	1904	861.124365716294	1
0	1905	863.543890076816	0
0	1910	880.211850219717	1
0	1914	881.731172253501	2
0	1918	881.985013921898	3
0	1919	882.017551940357	2
0	1921	882.119908319638	1
0	1926	882.626219144764	2
0	1927	882.876626056685	1
0	1929	884.39099806016	0
0	1934	884.800508669927	1
0	1938	886.709000863799	2
0	1942	887.792807692052	3
0	1943	888.34154707423	2
0	1945	889.699288147641	1
0	1950	890.502770613605	2
0	1954	891.298722810782	3
0	1955	891.453225452652	2
0	1960	893.098307237646	3
0	1964	893.12593593322	4
0	1965	894.220337864467	3
0	1967	894.961667874485	2
0	1972	895.824348941975	3
0	1973	896.37300835634	2
0	1978	897.639397864169	3
0	1979	897.705402028675	2
0	1981	897.930783117174	1
0	1983	899.965701248594	0
0	1988	900.795046456575	1
0	1992	900.856417353185	2
0	1993	903.666448580582	1
0	1998	903.668018441265	2
0	1999	904.770769700934	1
0	2001	905.611797620904	0
0	2006	907.649818699987	1
0	2010	908.729924723327	2
0	2014	910.070058643921	3
0	2015	911.220106463891	2
0	2020	911.614335140107	3
0	2021	912.234472845028	2
0	2026	916.469820503353	3
0	2027	916.509005107777	2
0	2029	916.948966924631	1
0	2034	917.83972713282	2
0	2038	918.020681029803	3
0	2039	918.184235632696	2
0	2044	918.76421830738	3
0	2048	919.424178994277	4
0	2052	920.56987836211	5
0	2053	921.980302033763	4
0	2055	922.141969781211	3
0	2057	922.370617258892	2
0	2059	922.963837721052	1
0	2061	925.004832154593	0
0	2066	925.532680105182	1
0	2070	927.295143642474	2
0	2074	927.418424851524	3
0	2075	927.629124358653	2
0	2080	927.906454601203	3
0	2081	928.465356083353	2
0	2083	928.494834548647	1
0	2085	929.303917422932	0
0	2090	929.458689008582	1
0	2091	932.163456031446	0
0	2096	933.08986318843	1
0	2100	933.358282702678	2
0	2101	933.385574536207	1
0	2103	934.627206539336	0
0	2108	935.431461222098	1
0	2109	935.892623486442	0
0	2114	938.9673131777	1
0	2115	939.820583297226	0
0	2120	940.27529222997	1
0	2121	941.60155686759	0
0	2126	946.637417613145	1
0	2130	950.68683643572	2
0	2131	951.543089873661	1
0	2136	953.601418298355	2
0	2137	954.982314730065	1
0	2139	956.287763351394	0
0	2144	956.900277631871	1
0	2145	957.424757626694	0
0	2150	965.731292016125	1
0	2154	966.48337753752	2
0	2158	966.492703745418	3
0	2159	966.956393188983	2
0	2161	968.4639690979	1
0	2166	970.581532255106	2
0	2170	971.051491183809	3
0	2171	971.220047306623	2
0	2173	971.421277787145	1
0	2175	975.873780587675	0
0	2180	976.74519472292	1
0	2181	976.877845915831	0
0	2186	977.941152553464	1
0	2187	979.406123853174	0
0	2192	983.136165757094	1
0	2196	983.397002828118	2
0	2200	984.589732693081	3
0	2201	985.145426623838	2
0	2203	986.26477380257	1
0	2205	986.707589924048	0
0	2210	988.787581690241	1
0	2211	991.289292090833	0
0	2216	992.917536411485	1
0	2220	993.943518634289	2
0	2221	994.700002303622	1
0	2226	996.839446271421	2
0	2230	997.368652115495	3
0	2231	998.030403254866	2
0	2236	999.132176877238	3
0	2237	999.621459065933	2
0	2239	999.815297130007	1
1	276	103.876222452319	25
1	278	104.502449570999	24
1	282	104.659351133348	25
1	284	105.425613485099	24
1	288	105.766128024319	25
1	290	106.142235769004	24
1	294	106.831518006253	25
1	296	110.550933566005	26
1	298	110.878841379833	25
1	302	111.088654081991	24
1	306	111.417478470208	25
1	308	111.700634269248	26
1	310	111.876644705498	27
1	312	113.598935591147	26
1	316	114.217416312166	27
1	318	121.075079383908	26
1	322	121.741179427587	25
1	326	125.266784547416	26
1	328	127.701741566711	25
1	332	130.907449665979	26
1	334	131.115321163692	25
1	338	131.307637245861	24
1	342	131.734952146017	25
1	344	132.172336954908	24
1	348	132.392011060681	25
1	350	132.427210802919	26
1	352	133.46024543709	27
1	354	135.611631396869	26
1	358	137.833856126067	27
1	360	137.835001808898	26
1	364	138.266124975582	27
1	366	141.487568341615	26
1	370	142.151845328024	27
1	372	142.746464424682	26
1	376	143.089988793104	27
1	378	149.431374018395	26
1	382	152.436309078689	27
1	384	152.593928190556	26
1	388	153.367059061982	25
1	392	155.608981186404	26
1	394	157.124157602511	25
1	398	158.356271619242	26
1	400	161.698489100537	27
1	402	163.903363768851	26
1	406	166.033071699269	27
1	408	166.042601313248	26
1	412	170.501259700831	25
1	416	170.933158346712	24
1	420	172.294224975736	25
1	422	173.510596744223	26
1	424	174.206131713128	25
1	428	176.012133327313	24
1	432	177.461553132777	23
1	436	177.580255120733	24
1	438	180.002510960031	25
1	440	180.588129219613	26
1	442	180.749406297711	25
1	446	183.323043478194	24
1	450	184.371250332748	23
1	454	184.624972000047	24
1	456	185.133658587373	23
1	460	185.347826985268	24
1	462	185.36106807794	25
1	464	186.263102577014	26
1	466	189.719701844602	25
1	470	190.471413679817	24
1	474	191.71265091619	23
1	478	192.396424928997	22
1	482	192.473254380646	23
1	484	192.662750895816	24
1	486	192.786103785431	25
1	488	192.908481158257	24
1	492	193.43079668065	25
1	494	193.903624973547	24
1	498	194.490267870257	25
1	500	194.838533431308	26
1	502	197.329382441915	25
1	506	198.44190398364	24
1	510	200.297867807042	25
1	512	201.147741587862	26
1	514	203.300453649752	27
1	516	204.030007926115	26
1	520	205.023443791282	25
1	524	206.838355817096	26
1	526	207.647900395871	27
1	528	208.363176793155	26
1	532	209.211491796925	25
1	536	209.401961502859	26
1	538	212.466157528142	27
1	540	216.56008695089	26
1	544	216.767331680826	27
1	546	217.589129428004	26
1	550	218.643725631645	27
1	552	220.190413134171	26
1	556	223.032554050506	27
1	558	223.698400895005	26
1	562	223.738971526681	27
1	564	232.954835139188	26
1	568	234.399907979855	27
1	570	234.795992043732	26
1	574	235.702677634339	25
1	578	237.723300466868	24
1	582	238.210736801066	25
1	584	238.614592358746	26
1	586	241.071697227087	25
1	590	241.400168635418	26
1	592	242.286872886361	25
1	596	243.046384918161	26
1	598	243.340345026375	25
1	602	245.772977267173	26
1	604	246.914337867864	25
1	608	246.929509093962	26
1	610	247.671591096886	27
1	612	247.833921681052	26
1	616	248.427203352139	25
1	620	249.194811572557	26
1	622	249.644143021143	25
1	626	250.5284499658	24
1	630	250.611491221112	25
1	632	250.829638215607	24
1	636	251.097044150955	25
1	638	251.566410652401	26
1	640	252.160335186125	25
1	644	252.783843429643	26
1	646	252.829248250944	27
1	648	253.509837036336	26
1	652	254.423470437386	27
1	654	258.019025330171	26
1	658	261.126330790245	27
1	660	274.997816769387	26
1	664	275.770696722834	27
1	666	279.294652900368	26
1	670	281.458998297364	27
1	672	281.935579488721	26
1	676	283.524257702332	25
1	680	284.944924799156	24
1	684	285.49892121908	25
1	686	286.826000286533	24
1	690	288.550919137927	23
1	694	289.827669389654	24
1	696	289.880417729039	25
1	698	293.75034774843	26
1	700	294.39282614725	27
1	702	302.116430432736	26
1	706	303.521562715713	25
1	710	303.843991423342	26
1	712	305.946033929169	25
1	716	306.190418828035	26
1	718	306.571123087376	25
1	722	308.992867838535	26
1	724	309.929742872584	25
1	728	310.560885626014	26
1	730	312.839633797569	27
1	732	314.023900359354	26
1	736	316.580809168595	27
1	738	318.776460709737	26
1	742	322.774830544629	27
1	744	325.416914032805	26
1	748	329.444690921746	25
1	752	329.872369359332	26
1	754	335.570195225936	25
1	758	335.931455516028	26
1	760	336.221088877498	25
1	764	338.705183176669	26
1	766	339.849074772423	27
1	768	344.754860741135	26
1	772	344.935443329331	27
1	774	345.445580609759	26
1	778	347.905366340161	27
1	780	349.044969266299	26
1	784	349.362660897716	25
1	788	349.664863660108	26
1	790	349.823692836589	25
1	794	351.039176686095	26
1	796	352.517619632878	25
1	800	352.704223546683	26
1	802	354.610819897029	25
1	806	354.659007164382	26
1	808	355.573064653967	25
1	812	357.075133467293	26
1	814	357.258599552521	27
1	816	358.086309724126	26
1	820	359.010631367129	27
1	822	360.12165241335	26
1	826	360.385118856283	25
1	830	360.604152640652	26
1	832	360.666630970527	25
1	836	360.936813888179	26
1	838	362.157846914236	27
1	840	363.646663145558	26
1	844	363.984188883971	25
1	848	364.482076876712	26
1	850	369.67215163755	25
1	854	370.549597715423	24
1	858	371.058875865559	25
1	860	371.177755166183	26
1	862	372.35667250049	27
1	864	377.641961258108	26
1	868	380.218966801723	25
1	872	380.688966604294	26
1	874	382.514908938592	27
1	876	382.526450788009	26
1	880	388.612783122178	27
1	882	393.696553248761	26
1	886	394.736320811834	27
1	888	397.924488880098	26
1	892	398.088340576355	27
1	894	398.214178197349	26
1	898	400.737255639767	27
1	900	402.344323891611	26
1	904	402.373432748947	25
1	908	402.947263927848	26
1	910	403.074074293349	27
1	912	403.854576586028	26
1	916	404.893770093752	27
1	918	409.460359997536	26
1	922	412.550422299883	25
1	926	413.113011201201	24
1	930	413.148686243306	25
1	932	413.372271430432	26
1	934	415.762260445148	25
1	938	419.074430120185	24
1	942	419.758913466719	25
1	944	421.659594643448	26
1	946	423.370965676614	25
1	950	426.393892378516	24
1	954	427.281618435401	25
1	956	430.092474466012	26
1	958	431.461168596549	25
1	962	432.108922015054	24
1	966	434.966002405703	25
1	968	437.087288596466	26
1	970	437.858078494734	25
1	974	438.264914346556	26
1	976	438.717501585198	25
1	980	439.933780010965	26
1	982	447.006232980721	25
1	986	447.812656720496	24
1	990	448.150594697594	25
1	992	448.503101928863	24
1	996	449.720772689046	23
1	1000	450.406624020164	24
1	1002	450.9682081936	25
1	1004	451.167849183575	24
1	1008	451.930080606363	23
1	1012	453.491542273703	22
1	1016	453.599325088561	23
1	1018	453.953615314155	24
1	1020	454.005572648021	25
1	1022	455.866259579015	26
1	1024	456.539570504692	25
1	1028	456.812722959186	26
1	1030	457.177985799551	25
1	1034	458.741643947247	26
1	1036	459.684162811943	25
1	1040	461.241764093538	26
1	1042	463.290639302162	25
1	1046	466.347060796617	26
1	1048	467.592687627261	27
1	1050	475.513926523126	26
1	1054	477.524321411813	25
1	1058	478.092441782463	24
1	1062	481.200937467286	25
1	1064	481.230412838002	26
1	1066	483.396625092549	25
1	1070	484.485574059119	26
1	1072	485.355913590579	25
1	1076	485.950906064241	26
1	1078	490.233901692676	27
1	1080	496.159058748007	26
1	1084	497.789068012124	27
1	1086	500.133986825674	26
1	1090	502.177415393661	25
1	1094	503.370720437762	26
1	1096	504.616659105103	25
1	1100	505.018083579872	24
1	1104	505.587088621066	25
1	1106	505.992634872177	26
1	1108	507.190267718907	27
1	1110	507.476957845992	26
1	1114	507.783742680379	27
1	1116	509.664443552706	26
1	1120	510.136668558376	27
1	1122	512.603373653864	26
1	1126	514.465822284471	27
1	1128	522.902527118944	26
1	1132	524.315651417758	25
1	1136	524.827113508633	24
1	1140	525.207820156709	25
1	1142	525.449716772853	24
1	1146	525.876281011717	25
1	1148	527.026411133183	26
1	1150	529.889596148057	27
1	1152	531.052270590501	26
1	1156	531.170007945744	25
1	1160	531.723642769296	26
1	1162	533.776499627757	25
1	1166	534.02624055703	24
1	1170	534.048054068604	23
1	1174	534.15171782905	24
1	1176	534.536028844557	23
1	1180	535.36860690816	24
1	1182	535.900356498369	25
1	1184	536.614196204082	26
1	1186	539.197117674854	27
1	1188	541.703240558741	26
1	1192	541.71588649024	25
1	1196	541.734047415509	26
1	1198	542.187950839337	27
1	1200	550.325088949926	26
1	1204	550.641667411373	27
1	1206	550.971424760558	26
1	1210	552.801177171855	25
1	1214	552.81284599526	24
1	1218	553.146106849629	25
1	1220	555.203527314391	26
1	1222	555.670903212376	25
1	1226	555.9422561111	26
1	1228	556.232662787623	27
1	1230	560.127828023039	26
1	1234	561.217774874836	25
1	1238	561.446446357634	26
1	1240	562.625656242224	25
1	1244	564.081622463331	26
1	1246	566.878733140831	27
1	1248	568.48222582883	26
1	1252	569.689151422151	27
1	1254	577.257582025181	26
1	1258	577.891897818827	25
1	1262	578.730738917076	24
1	1266	578.892230457433	25
1	1268	579.204244612763	26
1	1270	581.994503553423	27
1	1272	583.909696374055	26
1	1276	585.145410724091	25
1	1280	585.162442945465	26
1	1282	586.609117549105	27
1	1284	591.566093087086	26
1	1288	592.091645866541	25
1	1292	592.818895690304	26
1	1294	598.244038947916	25
1	1298	599.450780585405	26
1	1300	599.703032457018	27
1	1302	602.780984142939	26
1	1306	603.376741432557	25
1	1310	606.794251051421	26
1	1312	606.85793234297	25
1	1316	607.437674917157	24
1	1320	607.466170008413	25
1	1322	607.633285423495	26
1	1324	607.945799871436	27
1	1326	613.988452708212	26
1	1330	615.393822435569	25
1	1334	618.637478142826	26
1	1336	619.115294548498	27
1	1338	619.233987981906	26
1	1342	619.608061325823	25
1	1346	620.044756202305	24
1	1350	620.7269899607	25
1	1352	621.10323749862	26
1	1354	621.689406474266	25
1	1358	625.18716552006	24
1	1362	625.609530496815	23
1	1366	625.745648588904	24
1	1368	626.265929625442	25
1	1370	626.473569092595	24
1	1374	626.674757428643	25
1	1376	626.878439524338	24
1	1380	632.206731127131	25
1	1382	633.977186391942	26
1	1384	639.567934694542	25
1	1388	639.707256912167	26
1	1390	640.375109162317	25
1	1394	642.632938097551	26
1	1396	645.72840388072	27
1	1398	648.839439663788	26
1	1402	649.434663258941	27
1	1404	652.170025861661	26
1	1408	652.571822950461	25
1	1412	652.701135347506	26
1	1414	655.855340023309	25
1	1418	656.027121496609	24
1	1422	656.128314310118	25
1	1424	656.266636115004	26
1	1426	657.90508038372	25
1	1430	657.971253553877	26
1	1432	659.022390606415	27
1	1434	660.794540511491	26
1	1438	662.637271436606	25
1	1442	665.130886283638	26
1	1444	665.608818623915	27
1	1446	666.648388087402	26
1	1450	670.612829496651	25
1	1454	671.506814414072	26
1	1456	672.405170867014	25
1	1460	673.515088856459	26
1	1462	673.652774548894	27
1	1464	676.789298467627	26
1	1468	677.553460543672	27
1	1470	678.583619131037	26
1	1474	678.643318445304	27
1	1476	679.580502733203	26
1	1480	680.021607231081	25
1	1484	680.696830495004	24
1	1488	680.872251249398	25
1	1490	682.475492525137	24
1	1494	683.619498584668	23
1	1498	683.675329532457	24
1	1500	684.618724499001	25
1	1502	686.746236343778	24
1	1506	687.13819658316	25
1	1508	687.889159665181	26
1	1510	688.155369934997	27
1	1512	689.933530716894	26
1	1516	691.853397623884	27
1	1518	694.420847128425	26
1	1522	698.227321093135	25
1	1526	698.30908331077	26
1	1528	699.191056799407	25
1	1532	699.560504195413	26
1	1534	702.02043260703	25
1	1538	703.021130149808	26
1	1540	703.589964321457	27
1	1542	708.055439031234	26
1	1546	708.217610272616	27
1	1548	714.13319236853	26
1	1552	716.045467460244	25
1	1556	716.814266541283	24
1	1560	716.888952626716	23
1	1564	717.386783910251	24
1	1566	717.971801349284	25
1	1568	719.624734211905	24
1	1572	721.271310526436	25
1	1574	721.472109130553	26
1	1576	722.430531711491	25
1	1580	722.730664193636	24
1	1584	723.491090901403	23