version 3
run General-13-20221103-10:28:22-6760
attr configname General
attr datetime 20221103-10:28:22
attr datetimef 20221103-102822
attr experiment General
attr inifile block.ini
attr iterationvars "$0=2, $1=30"
attr iterationvarsd 2/30
attr iterationvarsf 2,30-
attr measurement "$0=2, $1=30"
attr network Block
attr processid 6760
attr repetition 3
attr replication #3
attr resultdir results
attr runnumber 13
attr seedset 13
config network Block
config repeat 5
config sim-time-limit 1000s
config warmup-period 100s
config **.alloca.resourceModuleName "\"risorse\""
config **.dealloca.resourceModuleName "\"risorse\""
config **.is.delay exponential(3s)
config **.servente.serviceTime exponential(2s)
config **.dealloca.resourceAmount 2
config **.alloca.resourceAmount 2
config **.risorse.amount 6
config **.sorgente.numJobs (30)
config **.result-recording-modes all

vector 0 Block.is delayedJobs:vector ETV
attr interpolationmode sample-hold
attr recordingmode vector
attr title "number of delayed jobs"
vector 1 Block.alloca queueLength:vector ETV
attr interpolationmode sample-hold
attr recordingmode vector
attr title "queue length"
vector 2 Block.servente queueLength:vector ETV
attr interpolationmode sample-hold
attr recordingmode vector
attr title "queue length"
vector 3 Block.servente queueingTime:vector ETV
attr interpolationmode none
attr recordingmode vector
attr title "queueing time at dequeue"
attr unit s
vector 4 Block.alloca queueingTime:vector ETV
attr interpolationmode none
attr recordingmode vector
attr title "queueing time at dequeue"
attr unit s
vector 5 Block.risorse amount:vector ETV
attr interpolationmode sample-hold
attr recordingmode vector
attr title "available resource"
0	409	102.216303570684	1
0	414	102.867809452523	2
0	418	102.892872673969	3
0	419	104.966569800358	2
0	424	105.649094402792	3
0	425	105.987861504145	2
0	427	109.101014373272	1
0	429	112.310130602175	0
0	434	114.956172264296	1
0	438	115.376847201526	2
0	442	115.666095248365	3
0	446	116.06566728788	4
0	450	116.126142403609	5
0	451	116.43692493834	4
0	453	116.565934487519	3
0	455	116.738841044106	2
0	460	117.143838130839	3
0	464	117.509160707682	4
0	468	117.590779032237	5
0	469	117.952893768057	4
0	471	120.080585688913	3
0	473	120.22372417518	2
0	475	122.242981199745	1
0	477	122.289060944548	0
0	482	124.245422240115	1
0	486	125.132931969806	2
0	490	125.187853378695	3
0	491	125.602048871396	2
0	496	126.764996719399	3
0	497	126.944164308747	2
0	502	129.767834978825	3
0	503	130.443399681813	2
0	505	131.053450142201	1
0	510	131.437060508246	2
0	511	132.016831384832	1
0	516	132.62981990561	2
0	517	133.823200342083	1
0	519	134.353875773547	0
0	524	140.689634058198	1
0	525	141.937366092554	0
0	530	142.182169397414	1
0	534	146.519840374347	2
0	535	146.982883760195	1
0	540	148.518842573615	2
0	544	148.755163909797	3
0	548	149.901454932966	4
0	549	150.248714303459	3
0	554	150.391861470478	4
0	555	150.669041463203	3
0	560	151.487136204651	4
0	561	152.075757935357	3
0	563	152.439010961226	2
0	568	153.479353451086	3
0	569	154.103300651788	2
0	571	154.127475549309	1
0	576	154.430571433272	2
0	580	154.473842846138	3
0	581	154.686918495624	2
0	583	155.415447485427	1
0	585	161.672368254457	0
0	590	162.174376291405	1
0	594	165.015614879747	2
0	598	165.078979842124	3
0	599	165.324961631318	2
0	604	166.873225682239	3
0	605	167.389729500342	2
0	610	168.623226304961	3
0	611	168.658324178973	2
0	613	169.599259867126	1
0	618	172.172494822527	2
0	619	172.970751538055	1
0	624	174.845490708489	2
0	625	176.77170019636	1
0	630	179.65944529182	2
0	631	180.421075081721	1
0	633	180.451516985647	0
0	638	182.736314436887	1
0	642	183.746415330297	2
0	643	184.24633155524	1
0	648	184.552315952229	2
0	649	185.235270061851	1
0	654	185.695669355299	2
0	655	185.905645897989	1
0	657	186.239297856426	0
0	662	186.297438049592	1
0	663	190.45015583244	0
0	668	191.222613396942	1
0	672	191.693506963084	2
0	673	191.818256712697	1
0	675	192.091567511645	0
0	680	192.443241967129	1
0	684	192.913196238172	2
0	685	193.207172780983	1
0	687	193.896457420644	0
0	692	194.474585668151	1
0	693	194.577806416207	0
0	698	195.362828480063	1
0	699	196.243523246999	0
0	704	199.922997866341	1
0	708	201.865046510205	2
0	712	201.984484404538	3
0	713	202.753090495269	2
0	718	203.234582252697	3
0	719	203.238592020933	2
0	724	203.62689452203	3
0	725	206.073669337393	2
0	727	206.145384261556	1
0	732	206.456341333033	2
0	733	208.796450215195	1
0	735	210.926892577293	0
0	740	215.973329888088	1
0	741	217.378281494105	0
0	746	224.88613768388	1
0	747	224.926003257272	0
0	752	225.656502633943	1
0	753	230.960356536697	0
0	758	232.772172665369	1
0	762	235.535581193201	2
0	766	235.579920028763	3
0	770	235.749146244792	4
0	771	235.784813501907	3
0	773	236.144970172902	2
0	778	236.797483899525	3
0	779	237.859800568512	2
0	781	239.28892602389	1
0	786	240.342590928822	2
0	787	241.21238422138	1
0	789	241.633934706316	0
0	794	244.227923785999	1
0	798	244.23662499459	2
0	799	244.547774184793	1
0	801	244.697895622523	0
0	806	244.753464897299	1
0	810	246.281646723499	2
0	814	246.815320293112	3
0	815	247.217643763567	2
0	820	248.179980887951	3
0	821	249.995951478666	2
0	826	250.115649588378	3
0	830	250.626338301232	4
0	834	250.717640791459	5
0	835	250.938817812361	4
0	837	251.51247038652	3
0	839	252.315570626311	2
0	844	253.105372778091	3
0	848	254.009493086432	4
0	849	254.888713798776	3
0	854	255.782578688131	4
0	855	255.855239706002	3
0	857	255.910701921299	2
0	859	256.022729054464	1
0	861	257.836050214942	0
0	866	258.38619784083	1
0	867	259.894977644001	0
0	872	262.455421840731	1
0	873	262.983267320445	0
0	878	266.358344149131	1
0	882	267.136589711393	2
0	883	267.327580104451	1
0	885	267.907091421333	0
0	890	268.174749794254	1
0	891	269.264916074748	0
0	896	269.332743578143	1
0	897	269.772101563161	0
0	902	273.635193759038	1
0	903	277.190156842846	0
0	908	278.08544948284	1
0	909	278.248394210448	0
0	914	279.089666304904	1
0	918	280.550192521061	2
0	919	281.144550863813	1
0	921	281.702459202175	0
0	926	283.007759728946	1
0	930	283.18042739616	2
0	931	284.172274768818	1
0	933	285.127620440387	0
0	938	287.250074029896	1
0	939	288.636546494544	0
0	944	289.489845299999	1
0	945	291.596584129683	0
0	950	291.920735729948	1
0	951	292.312193706701	0
0	956	292.975312637486	1
0	957	293.39539005602	0
0	962	293.53206966999	1
0	966	298.739778925534	2
0	967	299.113744409139	1
0	969	300.233499933296	0
0	974	310.102450884145	1
0	975	310.659858641799	0
0	980	314.174106604873	1
0	984	316.215431102709	2
0	988	316.885135490278	3
0	989	319.020158755686	2
0	994	321.80627272507	3
0	998	322.189869837612	4
0	999	322.193559018665	3
0	1001	322.503844287498	2
0	1003	323.443558436851	1
0	1005	325.562097315006	0
0	1010	329.10667678331	1
0	1014	331.919749366682	2
0	1015	334.507852452556	1
0	1017	336.442623801688	0
0	1022	338.029061721625	1
0	1026	340.266455095672	2
0	1030	342.729373098526	3
0	1031	342.75383812615	2
0	1033	342.759055775611	1
0	1038	342.804433102397	2
0	1039	344.94509188045	1
0	1044	345.181240396431	2
0	1045	345.607306415685	1
0	1050	346.082352614372	2
0	1054	349.216233898766	3
0	1055	349.621522825685	2
0	1057	350.436929438876	1
0	1062	352.937964858946	2
0	1063	353.534063205762	1
0	1068	355.568651196618	2
0	1069	356.023205470087	1
0	1071	358.274555431939	0
0	1076	360.706323024721	1
0	1080	361.106783263476	2
0	1081	362.193372048252	1
0	1083	364.025476903939	0
0	1088	366.311723114473	1
0	1092	366.619130823465	2
0	1096	367.380819090845	3
0	1097	368.061162907982	2
0	1099	369.164793100991	1
0	1104	370.710039149756	2
0	1105	371.092210514563	1
0	1110	373.281490403886	2
0	1114	373.411157494005	3
0	1115	374.775172496178	2
0	1117	374.847027071664	1
0	1122	375.949860675238	2
0	1126	375.96353372131	3
0	1130	376.46597382459	4
0	1131	376.49869862351	3
0	1136	376.897228338684	4
0	1137	376.968959251134	3
0	1139	377.878009074739	2
0	1141	378.307392426999	1
0	1146	379.291260297003	2
0	1150	379.943712229869	3
0	1151	379.977991018607	2
0	1156	380.111226210502	3
0	1157	381.049677322116	2
0	1162	381.157060578439	3
0	1163	381.449389848706	2
0	1165	384.649329504194	1
0	1167	384.874395916716	0
0	1172	386.103260542107	1
0	1176	387.322063211489	2
0	1180	389.59254601941	3
0	1184	390.162885452772	4
0	1185	391.215024795764	3
0	1187	392.201373631871	2
0	1192	392.421628979593	3
0	1193	392.704226381321	2
0	1195	392.96662555622	1
0	1197	393.027710740435	0
0	1202	394.022272297802	1
0	1206	396.321011204638	2
0	1207	396.54332401585	1
0	1212	396.743357720867	2
0	1216	397.115560646691	3
0	1217	398.455497550394	2
0	1222	398.542980710658	3
0	1223	398.673390698698	2
0	1225	399.065080601585	1
0	1230	399.200455113934	2
0	1231	401.56001719926	1
0	1236	407.587351619578	2
0	1240	407.816268328003	3
0	1241	408.32870562293	2
0	1243	409.518626500713	1
0	1245	411.548366093945	0
0	1250	417.052182882381	1
0	1251	423.389949497053	0
0	1256	424.83754172339	1
0	1260	426.241682572146	2
0	1261	426.706457422147	1
0	1266	427.134358928956	2
0	1267	428.153580610789	1
0	1269	431.857845325074	0
0	1274	432.271063286829	1
0	1275	432.999237949243	0
0	1280	433.160371269606	1
0	1284	434.833762156226	2
0	1285	435.093241082044	1
0	1290	435.281207715337	2
0	1291	438.354757821887	1
0	1296	439.286061692939	2
0	1300	440.845157473768	3
0	1304	441.583017418715	4
0	1305	442.124681937122	3
0	1307	442.137514740799	2
0	1309	442.52766329138	1
0	1314	442.692007284724	2
0	1315	442.807351236476	1
0	1320	442.933219627168	2
0	1324	442.977622117362	3
0	1325	443.563004672163	2
0	1327	446.865860141327	1
0	1332	447.027638390809	2
0	1336	447.712373612494	3
0	1340	448.931047884802	4
0	1344	449.031965691034	5
0	1345	449.7295215036	4
0	1350	449.74540845668	5
0	1351	450.803936291077	4
0	1353	451.723742467765	3
0	1355	452.538350268032	2
0	1360	453.015194596171	3
0	1361	453.370134154966	2
0	1363	454.006370228845	1
0	1365	454.830696278658	0
0	1370	454.931893401991	1
0	1374	457.815298457359	2
0	1378	459.126264213947	3
0	1379	459.307217972166	2
0	1381	460.083138365164	1
0	1386	460.249375437673	2
0	1387	460.785080341662	1
0	1389	461.288356716577	0
0	1394	464.14673197813	1
0	1395	464.472550523964	0
0	1400	464.842143854583	1
0	1401	466.858541843509	0
0	1406	468.527548308605	1
0	1410	468.951739791581	2
0	1414	468.961226883473	3
0	1415	470.123129428664	2
0	1420	471.231413907901	3
0	1421	471.679803042883	2
0	1423	471.832777793803	1
0	1428	473.369182438232	2
0	1429	473.898354093361	1
0	1434	474.245066452072	2
0	1435	474.533853569716	1
0	1437	477.810484322679	0
0	1442	478.24812829139	1
0	1443	480.336961117499	0
0	1448	480.619504115651	1
0	1452	482.517195975438	2
0	1456	483.287082545492	3
0	1457	484.347495956212	2
0	1462	485.960398082655	3
0	1463	486.04897524275	2
0	1465	486.754999344914	1
0	1470	487.451568143413	2
0	1471	487.800780764544	1
0	1476	488.940660804526	2
0	1480	489.101046541331	3
0	1484	490.387360587351	4
0	1485	490.432052041354	3
0	1487	490.543142057803	2
0	1489	494.803174842064	1
0	1491	495.04266432716	0
0	1496	496.613680194509	1
0	1500	496.649568524274	2
0	1504	496.895967412375	3
0	1505	497.106468314371	2
0	1507	497.253538376611	1
0	1509	497.889497517449	0
0	1514	498.447122389868	1
0	1518	498.512154203391	2
0	1519	498.767710219281	1
0	1524	498.794536149904	2
0	1525	499.59281590934	1
0	1527	500.16245268772	0
0	1532	501.15553098867	1
0	1536	502.73235614723	2
0	1537	503.125148746216	1
0	1542	505.715904102995	2
0	1546	506.016515500193	3
0	1547	506.19211441404	2
0	1549	508.184930983808	1
0	1554	508.872504195405	2
0	1555	509.068525131019	1
0	1560	509.102792823226	2
0	1561	510.290874263339	1
0	1563	510.783632473131	0
0	1568	511.021996892939	1
0	1572	511.18283574983	2
0	1573	511.915749369415	1
0	1578	512.873437366463	2
0	1582	512.985174826971	3
0	1583	513.11727071783	2
0	1588	514.563034390752	3
0	1592	514.89457135439	4
0	1596	515.765029743181	5
0	1597	517.394014986301	4
0	1602	518.154202050564	5
0	1606	519.944917391806	6
0	1607	520.126470282188	5
0	1612	520.800155862962	6
0	1613	520.813617249908	5
0	1615	520.9470231716	4
0	1617	521.135387282152	3
0	1619	521.215955098946	2
0	1624	521.279505647943	3
0	1625	521.747183784565	2
0	1627	522.530400834307	1
0	1632	525.466260580378	2
0	1633	526.375857519904	1
0	1638	526.543208676492	2
0	1642	528.027567550756	3
0	1643	529.398231498908	2
0	1648	529.669299180907	3
0	1649	531.806926671493	2
0	1651	535.420666093678	1
0	1656	535.657267525482	2
0	1660	535.803001227519	3
0	1661	535.854747943595	2
0	1663	536.482192800118	1
0	1665	540.503742662947	0
0	1670	540.591298139539	1
0	1671	540.731103655731	0
0	1676	543.77840145448	1
0	1680	544.352672979675	2
0	1684	545.444038791478	3
0	1685	545.492911854267	2
0	1690	546.180170882894	3
0	1694	546.427792456442	4
0	1698	546.514431494119	5
0	1699	546.854812741413	4
0	1701	547.232638906098	3
0	1706	547.757469646215	4
0	1707	548.381512203008	3
0	1709	548.469991394364	2
0	1714	550.641108498059	3
0	1715	550.645393374037	2
0	1717	550.645831685984	1
0	1719	550.685219682464	0
0	1724	551.049847472045	1
0	1725	551.849333458499	0
0	1730	554.017305926182	1
0	1731	556.263040953827	0
0	1736	557.456108599225	1
0	1737	558.122326938775	0
0	1742	561.728096504203	1
0	1746	562.104406936976	2
0	1747	562.566057996918	1
0	1749	563.824655685541	0
0	1754	564.013816274976	1
0	1758	564.125950939308	2
0	1759	564.185566778333	1
0	1761	564.826284137701	0
0	1766	567.611048052484	1
0	1767	567.840528758157	0
0	1772	569.48982768624	1
0	1776	572.938381143911	2
0	1777	574.29462019451	1
0	1782	574.30255825047	2
0	1783	575.032811182223	1
0	1785	575.21213606137	0
0	1790	575.53787590737	1
0	1794	575.66781281076	2
0	1795	576.173348495449	1
0	1800	576.503025817804	2
0	1804	579.023987410694	3
0	1808	579.135866124224	4
0	1812	579.490262183388	5
0	1813	580.318256012534	4
0	1815	580.61323552518	3
0	1817	580.878235838462	2
0	1819	581.610730798656	1
0	1821	582.532273571357	0
0	1826	593.807409258633	1
0	1827	594.64290148095	0
0	1832	594.748877033263	1
0	1836	595.175627950842	2
0	1837	595.720606455476	1
0	1839	596.514130433712	0
0	1844	597.142424674935	1
0	1845	599.674141908906	0
0	1850	599.809373189455	1
0	1851	599.903061279449	0
0	1856	600.400627203972	1
0	1860	600.511632421331	2
0	1861	601.763670827607	1
0	1863	601.862709539993	0
0	1868	605.838136758645	1
0	1869	608.819594109238	0
0	1874	615.124186061332	1
0	1878	620.93449315707	2
0	1879	621.212685553904	1
0	1881	625.378147687393	0
0	1886	627.370705886025	1
0	1890	627.765162864142	2
0	1891	629.378378803814	1
0	1896	630.031902374082	2
0	1897	630.756763537425	1
0	1902	633.925639997143	2
0	1906	634.628498715147	3
0	1910	635.358796487295	4
0	1914	636.989214054912	5
0	1915	637.69904171634	4
0	1920	638.642123109702	5
0	1924	638.696832723979	6
0	1925	639.682399049772	5
0	1927	639.86937602193	4
0	1929	640.542241937186	3
0	1931	641.57442061082	2
0	1933	641.628577660337	1
0	1938	642.366620439942	2
0	1939	642.715464056481	1
0	1941	644.167097671776	0
0	1946	647.677188491124	1
0	1950	648.557917354902	2
0	1954	650.429391502593	3
0	1958	651.153494964319	4
0	1959	651.57671345637	3
0	1964	652.097187746327	4
0	1965	652.39641405213	3
0	1967	652.429587694467	2
0	1969	652.858626360619	1
0	1971	653.47167919115	0
0	1976	653.606133996743	1
0	1980	653.623350290504	2
0	1981	655.497838762576	1
0	1983	657.766933657632	0
0	1988	661.381549724573	1
0	1992	661.505935481821	2
0	1996	661.576625970208	3
0	1997	661.579302203656	2
0	1999	661.909519495577	1
0	2001	661.989456486826	0
0	2006	662.392101437791	1
0	2007	662.806287001335	0
0	2012	665.174474752048	1
0	2016	665.835869169327	2
0	2017	667.048170196234	1
0	2019	667.157461530864	0
0	2024	668.076546828643	1
0	2028	668.723781413963	2
0	2029	669.423885971729	1
0	2034	670.432716550447	2
0	2035	671.870470887028	1
0	2040	672.010579505753	2
0	2041	672.07546927195	1
0	2043	675.633536611137	0
0	2048	676.00787132167	1
0	2049	676.193000367581	0
0	2054	676.240934950252	1
0	2055	681.697235590624	0
0	2060	682.220635403848	1
0	2064	682.527196118401	2
0	2068	682.765757949094	3
0	2069	682.820923399724	2
0	2074	683.806926551797	3
0	2075	685.321380395608	2
0	2077	685.854326508068	1
0	2079	687.466943816553	0
0	2084	694.413471832959	1
0	2088	694.788651162612	2
0	2089	694.884467726679	1
0	2094	697.776235581865	2
0	2095	698.156323414327	1
0	2100	700.141072680779	2
0	2104	700.409955113326	3
0	2105	700.597046626894	2
0	2110	700.792067481383	3
0	2114	701.18278497632	4
0	2115	701.397689718643	3
0	2120	702.281794752887	4
0	2121	704.692862783345	3
0	2123	705.195857807939	2
0	2125	706.18074597821	1
0	2127	707.373255009997	0
0	2132	708.204718075945	1
0	2133	709.90685269854	0
0	2138	710.172683788434	1
0	2142	710.225048265646	2
0	2146	710.996094282249	3
0	2150	711.744491320505	4
0	2154	712.999330001227	5
0	2155	713.014734251726	4
0	2157	713.112130161594	3
0	2159	713.674421081106	2
0	2161	714.239683123389	1
0	2166	716.155397531179	2
0	2170	716.410305739662	3
0	2171	716.723916870982	2
0	2176	717.012688988838	3
0	2177	717.464709185739	2
0	2179	717.610570286169	1
0	2184	718.649049744526	2
0	2188	718.725519214215	3
0	2189	719.405164287019	2
0	2194	720.181872001338	3
0	2195	720.613566218496	2
0	2197	720.660773071772	1
0	2202	721.795008827321	2
0	2203	722.012789443147	1
0	2208	724.186096331047	2
0	2209	725.331165261982	1
0	2214	725.470064549433	2
0	2218	725.588723012913	3
0	2219	725.869860447668	2
0	2224	725.885467641527	3
0	2225	726.143036172189	2
0	2230	726.517990745629	3
0	2234	726.562328501872	4
0	2235	726.61386501053	3
0	2240	726.90915875384	4
0	2241	727.352989961451	3
0	2246	727.408353457536	4
0	2247	729.404579575935	3
0	2249	729.419261146895	2
0	2251	730.843593828917	1
0	2253	731.573395325551	0
0	2258	734.641401390939	1
0	2262	734.927139122702	2
0	2266	736.630478439096	3
0	2267	736.661093169253	2
0	2269	736.918589743222	1
0	2274	738.774011622277	2
0	2278	740.015421517176	3
0	2279	741.69920690452	2
0	2284	745.951107258376	3
0	2288	746.263242838828	4
0	2289	746.436449000727	3
0	2291	747.543941418185	2
0	2293	750.209631899842	1
0	2298	750.247631593985	2
0	2302	750.848378251558	3
0	2303	751.018494584653	2
0	2305	751.350173641498	1
0	2307	754.25563390668	0
0	2312	761.154469005697	1
0	2316	762.33390575266	2
0	2320	765.288908774386	3
0	2321	766.021860658153	2
0	2326	766.540888234898	3
0	2327	767.191785369557	2
0	2332	768.306002636288	3
0	2333	768.453511045092	2
0	2335	768.901511188474	1
0	2340	769.718395975022	2
0	2341	771.736973807686	1
0	2346	773.786644926005	2
0	2347	777.748489681938	1
0	2349	778.618397640728	0
0	2354	780.974825568202	1
0	2358	782.694106522459	2
0	2359	783.1187719394	1
0	2361	784.189623727811	0
0	2366	786.53335738619	1
0	2370	794.333839203281	2
0	2374	794.355173220941	3
0	2375	795.209841861604	2
0	2377	795.582705154369	1
0	2379	796.306831525101	0
0	2384	798.846928970962	1
0	2388	799.660918070454	2
0	2389	800.272550738909	1
0	2394	801.626410670916	2
0	2395	801.818639742588	1
0	2400	802.964629688151	2
0	2401	804.294410190506	1
0	2403	805.880001694229	0
0	2408	806.939755430271	1
0	2412	807.658125843865	2
0	2416	811.721733772658	3
0	2420	811.767114912722	4
0	2421	812.803756939887	3
0	2426	816.35236983971	4
0	2427	816.634143820661	3
0	2429	816.655701254533	2
0	2434	817.175018274628	3
0	2435	817.620758024668	2
0	2437	818.006638462096	1
0	2442	818.149353894704	2
0	2443	818.327258430924	1
0	2448	819.005648195648	2
0	2452	819.810211275183	3
0	2456	820.665581533625	4
0	2457	821.241172150666	3
0	2459	821.493269796868	2
0	2464	822.602138209893	3
0	2468	823.108274433636	4
0	2472	823.149757256732	5
0	2473	823.484856701769	4
0	2475	824.551788178846	3
0	2480	825.475729312164	4
0	2484	826.275854559857	5
0	2485	826.512048138095	4
0	2487	826.587355596741	3
0	2489	826.807973385352	2
0	2491	828.163984778366	1
0	2496	829.428660195424	2
0	2497	829.834865831014	1
0	2502	832.484932278229	2
0	2503	832.772066441704	1
0	2505	838.381561832304	0
0	2510	839.230930371464	1
0	2511	839.86510065031	0
0	2516	840.749178263494	1
0	2517	840.819832025413	0
0	2522	841.995245470862	1
0	2526	846.597720524543	2
0	2527	847.438970604812	1
0	2529	847.573717959223	0
0	2534	850.122201724584	1
0	2538	851.42177897983	2
0	2542	852.523135895396	3
0	2546	853.570095456722	4
0	2547	853.689591697818	3
0	2549	854.254908284428	2
0	2554	854.663464212416	3
0	2555	855.680925856347	2
0	2560	859.03736603129	3
0	2561	859.207852145788	2
0	2563	860.361960428749	1
0	2565	861.120961853764	0
0	2570	862.137314231125	1
0	2574	862.766633910753	2
0	2575	864.667019803447	1
0	2580	867.64145257053	2
0	2581	870.325455226109	1
0	2586	871.478143930491	2
0	2590	872.884447915457	3
0	2591	873.710830535396	2
0	2593	874.070068376966	1
0	2595	877.477680240782	0
0	2600	878.100855632139	1
0	2604	878.803537138029	2
0	2608	879.349663660476	3
0	2609	880.996234846156	2
0	2614	881.743602564025	3
0	2615	881.840412557092	2
0	2620	882.570195459588	3
0	2624	887.492231558691	4
0	2625	887.702945909733	3
0	2627	888.624475835153	2
0	2632	890.527437417116	3
0	2636	890.616471032927	4
0	2637	891.219562619594	3
0	2639	891.560267624739	2
0	2644	892.769262126496	3
0	2648	892.876465604498	4
0	2649	892.951239739941	3
0	2651	893.903247397471	2
0	2653	894.215441385458	1
0	2658	894.950945477832	2
0	2659	895.692819889259	1
0	2664	896.287689801181	2
0	2665	898.925074926516	1
0	2667	900.035235440237	0
0	2672	900.88633578053	1
0	2673	904.374123500673	0
0	2678	906.058429119917	1
0	2682	906.71975723875	2
0	2683	909.185325056197	1
0	2688	910.040850233887	2
0	2692	910.307816055905	3
0	2693	912.51790411943	2
0	2695	913.663860114601	1
0	2700	915.482515522918	2
0	2701	915.524606216743	1
0	2703	915.649568820103	0
0	2708	919.2915221939	1
0	2709	919.659305373159	0
0	2714	920.147011290021	1
0	2715	920.773911383008	0
0	2720	922.569008131686	1
0	2724	924.974409709551	2
0	2728	925.014984552281	3
0	2732	925.02091913321	4
0	2733	925.299296145935	3
0	2735	925.747114423132	2
0	2740	925.894835237303	3
0	2741	926.016635735461	2
0	2746	926.571960930818	3
0	2747	926.99181373191	2
0	2749	927.889605602093	1
0	2751	928.938858485248	0
0	2756	929.967347504781	1
0	2760	930.155116317994	2
0	2764	930.536096240328	3
0	2765	931.103099045248	2
0	2770	932.473073670245	3
0	2771	933.086028360437	2
0	2773	933.520326416077	1
0	2775	937.500943362561	0
0	2780	937.88905009444	1
0	2784	939.467636223839	2
0	2785	939.486052476288	1
0	2787	940.497034738422	0
0	2792	941.586370840943	1
0	2793	942.262171465277	0
0	2798	944.405290297264	1
0	2802	944.434572977534	2
0	2806	945.013007465644	3
0	2807	945.478097452751	2
0	2809	945.719032477614	1
0	2814	949.666412901057	2
0	2815	949.783253693327	1
0	2820	954.512465807415	2
0	2821	956.652207064282	1
0	2826	958.861226480133	2
0	2830	961.27110793928	3
0	2834	961.797708947049	4
0	2835	962.732300939415	3
0	2837	963.013758364841	2
0	2839	964.057144501502	1
0	2844	964.937343816288	2
0	2848	965.047777369797	3
0	2852	965.235426937545	4
0	2856	965.772638094808	5
0	2857	966.093404535194	4
0	2859	967.451901225501	3
0	2864	968.616445053095	4
0	2865	969.438549156615	3
0	2870	969.537507951433	4
0	2874	970.331458778589	5
0	2875	970.366398844016	4
0	2877	971.075691447746	3
0	2879	971.096962792511	2
0	2884	971.796904895343	3
0	2885	972.368849765428	2
0	2890	972.523341293639	3
0	2891	973.06901183767	2
0	2893	973.4899163289	1
0	2895	975.08892535953	0
0	2900	975.819920902948	1
0	2901	976.227909433868	0
0	2906	976.619995028307	1
0	2910	977.176521585325	2
0	2914	977.828496416925	3
0	2915	978.877617619324	2
0	2920	980.372225103316	3
0	2921	980.854913479943	2
0	2923	982.004975668169	1
0	2928	982.551926345367	2
0	2929	983.747468966858	1
0	2934	984.255890370176	2
0	2935	985.670308525521	1
0	2940	990.192610723958	2
0	2941	990.510015724146	1
0	2946	993.418850609314	2
0	2950	994.733016675239	3
0	2951	995.157826174481	2
0	2956	995.774896357377	3
0	2960	996.273650092808	4
0	2964	996.683286562887	5
0	2965	997.515033851918	4
0	2967	997.538287853816	3
0	2969	998.145748282077	2
0	2971	999.590112961307	1
1	410	102.216303570684	26
1	412	102.867809452523	25
1	416	102.892872673969	24
1	420	104.966569800358	25
1	422	105.649094402792	24
1	426	105.987861504145	25
1	428	109.101014373272	26
1	430	112.310130602175	27
1	432	114.956172264296	26
1	436	115.376847201526	25
1	440	115.666095248365	24
1	444	116.06566728788	23
1	448	116.126142403609	22
1	452	116.43692493834	23
1	454	116.565934487519	24
1	456	116.738841044106	25
1	458	117.143838130839	24
1	462	117.509160707682	23
1	466	117.590779032237	22
1	470	117.952893768057	23
1	472	120.080585688913	24
1	474	120.22372417518	25
1	476	122.242981199745	26
1	478	122.289060944548	27
1	480	124.245422240115	26
1	484	125.132931969806	25
1	488	125.187853378695	24
1	492	125.602048871396	25
1	494	126.764996719399	24
1	498	126.944164308747	25
1	500	129.767834978825	24
1	504	130.443399681813	25
1	506	131.053450142201	26
1	508	131.437060508246	25
1	512	132.016831384832	26
1	514	132.62981990561	25
1	518	133.823200342083	26
1	520	134.353875773547	27
1	522	140.689634058198	26
1	526	141.937366092554	27
1	528	142.182169397414	26
1	532	146.519840374347	25
1	536	146.982883760195	26
1	538	148.518842573615	25
1	542	148.755163909797	24
1	546	149.901454932966	23
1	550	150.248714303459	24
1	552	150.391861470478	23
1	556	150.669041463203	24
1	558	151.487136204651	23
1	562	152.075757935357	24
1	564	152.439010961226	25
1	566	153.479353451086	24
1	570	154.103300651788	25
1	572	154.127475549309	26
1	574	154.430571433272	25
1	578	154.473842846138	24
1	582	154.686918495624	25
1	584	155.415447485427	26
1	586	161.672368254457	27
1	588	162.174376291405	26
1	592	165.015614879747	25
1	596	165.078979842124	24
1	600	165.324961631318	25
1	602	166.873225682239	24
1	606	167.389729500342	25
1	608	168.623226304961	24
1	612	168.658324178973	25
1	614	169.599259867126	26
1	616	172.172494822527	25
1	620	172.970751538055	26
1	622	174.845490708489	25
1	626	176.77170019636	26
1	628	179.65944529182	25
1	632	180.421075081721	26
1	634	180.451516985647	27
1	636	182.736314436887	26
1	640	183.746415330297	25
1	644	184.24633155524	26
1	646	184.552315952229	25
1	650	185.235270061851	26
1	652	185.695669355299	25
1	656	185.905645897989	26
1	658	186.239297856426	27
1	660	186.297438049592	26
1	664	190.45015583244	27
1	666	191.222613396942	26
1	670	191.693506963084	25
1	674	191.818256712697	26
1	676	192.091567511645	27
1	678	192.443241967129	26
1	682	192.913196238172	25
1	686	193.207172780983	26
1	688	193.896457420644	27
1	690	194.474585668151	26
1	694	194.577806416207	27
1	696	195.362828480063	26
1	700	196.243523246999	27
1	702	199.922997866341	26
1	706	201.865046510205	25
1	710	201.984484404538	24
1	714	202.753090495269	25
1	716	203.234582252697	24
1	720	203.238592020933	25
1	722	203.62689452203	24
1	726	206.073669337393	25
1	728	206.145384261556	26
1	730	206.456341333033	25
1	734	208.796450215195	26
1	736	210.926892577293	27
1	738	215.973329888088	26
1	742	217.378281494105	27
1	744	224.88613768388	26
1	748	224.926003257272	27
1	750	225.656502633943	26
1	754	230.960356536697	27
1	756	232.772172665369	26
1	760	235.535581193201	25
1	764	235.579920028763	24
1	768	235.749146244792	23
1	772	235.784813501907	24
1	774	236.144970172902	25
1	776	236.797483899525	24
1	780	237.859800568512	25
1	782	239.28892602389	26
1	784	240.342590928822	25
1	788	241.21238422138	26
1	790	241.633934706316	27
1	792	244.227923785999	26
1	796	244.23662499459	25
1	800	244.547774184793	26
1	802	244.697895622523	27
1	804	244.753464897299	26
1	808	246.281646723499	25
1	812	246.815320293112	24
1	816	247.217643763567	25
1	818	248.179980887951	24
1	822	249.995951478666	25
1	824	250.115649588378	24
1	828	250.626338301232	23
1	832	250.717640791459	22
1	836	250.938817812361	23
1	838	251.51247038652	24
1	840	252.315570626311	25
1	842	253.105372778091	24
1	846	254.009493086432	23
1	850	254.888713798776	24
1	852	255.782578688131	23
1	856	255.855239706002	24
1	858	255.910701921299	25
1	860	256.022729054464	26
1	862	257.836050214942	27
1	864	258.38619784083	26
1	868	259.894977644001	27
1	870	262.455421840731	26
1	874	262.983267320445	27
1	876	266.358344149131	26
1	880	267.136589711393	25
1	884	267.327580104451	26
1	886	267.907091421333	27
1	888	268.174749794254	26
1	892	269.264916074748	27
1	894	269.332743578143	26
1	898	269.772101563161	27
1	900	273.635193759038	26
1	904	277.190156842846	27
1	906	278.08544948284	26
1	910	278.248394210448	27
1	912	279.089666304904	26
1	916	280.550192521061	25
1	920	281.144550863813	26
1	922	281.702459202175	27
1	924	283.007759728946	26
1	928	283.18042739616	25
1	932	284.172274768818	26
1	934	285.127620440387	27
1	936	287.250074029896	26
1	940	288.636546494544	27
1	942	289.489845299999	26
1	946	291.596584129683	27
1	948	291.920735729948	26
1	952	292.312193706701	27
1	954	292.975312637486	26
1	958	293.39539005602	27
1	960	293.53206966999	26
1	964	298.739778925534	25
1	968	299.113744409139	26
1	970	300.233499933296	27
1	972	310.102450884145	26
1	976	310.659858641799	27
1	978	314.174106604873	26
1	982	316.215431102709	25
1	986	316.885135490278	24
1	990	319.020158755686	25
1	992	321.80627272507	24
1	996	322.189869837612	23
1	1000	322.193559018665	24
1	1002	322.503844287498	25
1	1004	323.443558436851	26
1	1006	325.562097315006	27
1	1008	329.10667678331	26
1	1012	331.919749366682	25
1	1016	334.507852452556	26
1	1018	336.442623801688	27
1	1020	338.029061721625	26
1	1024	340.266455095672	25
1	1028	342.729373098526	24
1	1032	342.75383812615	25
1	1034	342.759055775611	26
1	1036	342.804433102397	25
1	1040	344.94509188045	26
1	1042	345.181240396431	25
1	1046	345.607306415685	26
1	1048	346.082352614372	25
1	1052	349.216233898766	24
1	1056	349.621522825685	25
1	1058	350.436929438876	26
1	1060	352.937964858946	25
1	1064	353.534063205762	26
1	1066	355.568651196618	25
1	1070	356.023205470087	26
1	1072	358.274555431939	27
1	1074	360.706323024721	26
1	1078	361.106783263476	25
1	1082	362.193372048252	26
1	1084	364.025476903939	27
1	1086	366.311723114473	26
1	1090	366.619130823465	25
1	1094	367.380819090845	24
1	1098	368.061162907982	25
1	1100	369.164793100991	26
1	1102	370.710039149756	25
1	1106	371.092210514563	26
1	1108	373.281490403886	25
1	1112	373.411157494005	24
1	1116	374.775172496178	25
1	1118	374.847027071664	26
1	1120	375.949860675238	25
1	1124	375.96353372131	24
1	1128	376.46597382459	23
1	1132	376.49869862351	24
1	1134	376.897228338684	23
1	1138	376.968959251134	24