version 3
run General-3-20221103-10:28:21-6760
attr configname General
attr datetime 20221103-10:28:21
attr datetimef 20221103-102821
attr experiment General
attr inifile block.ini
attr iterationvars "$0=2, $1=10"
attr iterationvarsd 2/10
attr iterationvarsf 2,10-
attr measurement "$0=2, $1=10"
attr network Block
attr processid 6760
attr repetition 3
attr replication #3
attr resultdir results
attr runnumber 3
attr seedset 3
config network Block
config repeat 5
config sim-time-limit 1000s
config warmup-period 100s
config **.alloca.resourceModuleName "\"risorse\""
config **.dealloca.resourceModuleName "\"risorse\""
config **.is.delay exponential(3s)
config **.servente.serviceTime exponential(2s)
config **.dealloca.resourceAmount 2
config **.alloca.resourceAmount 2
config **.risorse.amount 6
config **.sorgente.numJobs (10)
config **.result-recording-modes all

vector 0 Block.is delayedJobs:vector ETV
attr interpolationmode sample-hold
attr recordingmode vector
attr title "number of delayed jobs"
vector 1 Block.alloca queueLength:vector ETV
attr interpolationmode sample-hold
attr recordingmode vector
attr title "queue length"
vector 2 Block.servente queueLength:vector ETV
attr interpolationmode sample-hold
attr recordingmode vector
attr title "queue length"
vector 3 Block.servente queueingTime:vector ETV
attr interpolationmode none
attr recordingmode vector
attr title "queueing time at dequeue"
attr unit s
vector 4 Block.alloca queueingTime:vector ETV
attr interpolationmode none
attr recordingmode vector
attr title "queueing time at dequeue"
attr unit s
vector 5 Block.risorse amount:vector ETV
attr interpolationmode sample-hold
attr recordingmode vector
attr title "available resource"
0	367	100.24687756654	1
0	369	102.913084755529	0
0	374	103.317076316706	1
0	375	104.562934836039	0
0	380	104.660987962875	1
0	384	106.214565615632	2
0	385	107.212453858375	1
0	387	107.397282908471	0
0	392	109.713438239823	1
0	396	111.188072523024	2
0	397	111.378582266872	1
0	399	111.480583902474	0
0	404	111.495772447933	1
0	408	112.215600282749	2
0	409	112.329662491904	1
0	414	115.505965450185	2
0	418	116.275805772109	3
0	419	116.292336736713	2
0	424	116.318714263054	3
0	428	117.635996322923	4
0	432	117.688738209909	5
0	436	119.097454014205	6
0	437	119.472270809923	5
0	439	119.622315625176	4
0	441	119.803687380486	3
0	443	121.497398076976	2
0	445	121.821408311669	1
0	447	122.899974335704	0
0	452	124.100258465641	1
0	453	124.308210382118	0
0	458	124.564037173965	1
0	459	124.790025617658	0
0	464	129.764208511496	1
0	468	130.413794459779	2
0	469	130.429801715391	1
0	474	130.801114728741	2
0	475	130.907926658391	1
0	477	131.11754410947	0
0	482	140.072618591973	1
0	483	140.48797082711	0
0	488	142.432158834309	1
0	489	144.849613435896	0
0	494	145.22194149333	1
0	498	145.469028009578	2
0	502	145.648878990023	3
0	503	145.846022243632	2
0	508	147.839860965546	3
0	512	148.639536979292	4
0	513	149.082330473465	3
0	518	149.537276027589	4
0	519	150.176104758246	3
0	521	150.456389602399	2
0	526	151.030840349411	3
0	530	152.136671744461	4
0	531	152.324134733822	3
0	533	154.585025312795	2
0	538	155.563833736496	3
0	542	157.257758379349	4
0	543	157.619324037527	3
0	545	158.871475758024	2
0	547	159.220922443462	1
0	549	159.451215450303	0
0	554	161.51688399623	1
0	558	164.741804053209	2
0	562	165.60313981209	3
0	563	167.05432463858	2
0	568	168.566449311287	3
0	569	168.838366824786	2
0	571	168.842445785695	1
0	576	173.102752064798	2
0	577	175.925810432974	1
0	579	176.115377905067	0
0	584	176.183791938463	1
0	588	176.850287461608	2
0	589	177.550629780797	1
0	591	179.264834566787	0
0	596	181.122877638647	1
0	597	181.778766070487	0
0	602	182.699475898372	1
0	603	183.339324001149	0
0	608	186.22025469399	1
0	612	186.752596920662	2
0	616	187.206091113681	3
0	617	190.100521140953	2
0	619	191.363065537893	1
0	624	193.562337993321	2
0	628	196.468512354223	3
0	632	196.885640179763	4
0	633	197.167882850052	3
0	635	197.943300627974	2
0	640	198.15306341596	3
0	641	198.821632066517	2
0	643	199.273189574815	1
0	648	199.549504336735	2
0	652	199.927865346696	3
0	653	200.166476441803	2
0	658	200.636668560286	3
0	662	201.262825123946	4
0	663	202.627982619658	3
0	665	203.085271720129	2
0	667	204.575974392862	1
0	672	205.621757801608	2
0	673	206.359404823815	1
0	678	207.021115896116	2
0	679	207.440120904677	1
0	681	207.606291062152	0
0	686	208.719490744615	1
0	687	208.948914896401	0
0	692	209.557867186673	1
0	696	211.439268243691	2
0	700	211.69633858721	3
0	704	211.775729882335	4
0	705	212.160454188403	3
0	707	213.379686188225	2
0	709	214.50569420687	1
0	711	216.245681280019	0
0	716	233.006455193138	1
0	717	233.15752247425	0
0	722	233.630261981887	1
0	726	234.224936053932	2
0	727	234.335050240541	1
0	732	234.872636841375	2
0	736	235.452650414611	3
0	737	237.408541167508	2
0	739	238.031742387187	1
0	741	238.160814418728	0
0	746	240.01306569205	1
0	747	240.976908474118	0
0	752	243.619673115518	1
0	756	243.936061990686	2
0	757	246.788255620276	1
0	759	253.337565080299	0
0	764	254.71832026391	1
0	768	255.597592214942	2
0	769	255.815731768877	1
0	771	256.433874174921	0
0	776	257.181895886583	1
0	777	257.360290887221	0
0	782	258.535717492839	1
0	783	258.795238962488	0
0	788	258.813456457548	1
0	792	262.746446071985	2
0	796	263.239265059664	3
0	797	265.080998518536	2
0	802	266.717577022824	3
0	803	267.276686990007	2
0	805	268.4482032095	1
0	807	268.689803335032	0
0	812	279.452075476179	1
0	813	280.35679002898	0
0	818	288.939956527242	1
0	822	289.283122781529	2
0	826	290.55539404365	3
0	827	291.805071480707	2
0	829	292.472703955713	1
0	834	293.013506992144	2
0	835	293.214084846674	1
0	840	293.844555835172	2
0	841	296.06084710954	1
0	846	296.230951216889	2
0	847	297.2621108002	1
0	852	298.990842090664	2
0	853	299.8324979488	1
0	858	302.38776683887	2
0	859	302.903812567242	1
0	861	303.044578346283	0
0	866	306.151861198656	1
0	870	306.322042645808	2
0	874	307.057467420925	3
0	878	308.703916589571	4
0	879	309.713832105396	3
0	881	310.038597354037	2
0	883	310.953989460195	1
0	885	311.846523660291	0
0	890	313.751887309652	1
0	894	313.951265751831	2
0	895	314.401876137118	1
0	900	314.992677578964	2
0	901	316.122519581718	1
0	906	316.539066686218	2
0	907	317.643330405795	1
0	909	318.171090857521	0
0	914	318.636273898263	1
0	918	319.378290060333	2
0	919	319.879076706339	1
0	924	323.06044713077	2
0	928	324.43344560348	3
0	929	324.928162722924	2
0	934	326.866479242837	3
0	938	329.138378972344	4
0	939	329.246264163409	3
0	941	329.424359086713	2
0	943	330.51356706653	1
0	948	331.091541489077	2
0	949	331.779553705191	1
0	951	337.553145139883	0
0	956	343.341441826418	1
0	960	343.689308677926	2
0	961	344.167004450842	1
0	966	347.113824035614	2
0	970	347.83432466721	3
0	974	348.058248570214	4
0	978	348.732845285142	5
0	979	348.96769908986	4
0	981	349.747876257076	3
0	983	350.03446866398	2
0	988	351.233608705424	3
0	989	351.434366642544	2
0	994	351.778371618418	3
0	998	354.170815223074	4
0	1002	354.222533948361	5
0	1003	354.460782726001	4
0	1005	354.952379371228	3
0	1007	356.615275827708	2
0	1009	357.190665309336	1
0	1011	357.949756982223	0
0	1016	359.498617340857	1
0	1020	360.400828098527	2
0	1024	363.620277276991	3
0	1025	364.75376725085	2
0	1027	364.845728017565	1
0	1029	366.058456322409	0
0	1034	366.163038281176	1
0	1035	367.145612759164	0
0	1040	368.008111328992	1
0	1044	368.534639346951	2
0	1045	369.698760725294	1
0	1050	369.707130696847	2
0	1051	370.008471236863	1
0	1053	370.8606181128	0
0	1058	371.767589784901	1
0	1062	374.817636067085	2
0	1063	377.113079663582	1
0	1065	377.207988288831	0
0	1070	377.975087574769	1
0	1074	378.934157782221	2
0	1075	379.721512031498	1
0	1080	379.982374678782	2
0	1084	380.205711425716	3
0	1088	381.361789800521	4
0	1089	382.44962314319	3
0	1091	382.622432190557	2
0	1093	384.376947597011	1
0	1098	385.21324911627	2
0	1099	390.064846757167	1
0	1104	392.188667072037	2
0	1105	394.113380532413	1
0	1110	394.735678956353	2
0	1114	395.791254073709	3
0	1115	395.805707665648	2
0	1117	395.930948518062	1
0	1122	396.090985684135	2
0	1126	396.135672850989	3
0	1127	396.262734083935	2
0	1132	396.638697997158	3
0	1136	397.52112824741	4
0	1137	397.728875054671	3
0	1139	399.703005089262	2
0	1141	400.208645144774	1
0	1143	400.243962306305	0
0	1148	400.574610603528	1
0	1149	401.084351898666	0
0	1154	401.768108310618	1
0	1158	403.064195017812	2
0	1162	404.516716905177	3
0	1163	405.160188422667	2
0	1168	405.435969079002	3
0	1169	405.666734661122	2
0	1174	406.04475044772	3
0	1175	408.00027932351	2
0	1180	409.292107814132	3
0	1181	409.485017792941	2
0	1183	409.815010971236	1
0	1185	413.211764631314	0
0	1190	413.912753822806	1
0	1194	414.808717695966	2
0	1195	416.579461734621	1
0	1200	419.118163157741	2
0	1201	419.331201209659	1
0	1206	419.849096676453	2
0	1207	420.087838032415	1
0	1209	420.38149943251	0
0	1214	420.516379629831	1
0	1218	420.995165184518	2
0	1219	421.23088735612	1
0	1224	422.085538697566	2
0	1228	422.354479026184	3
0	1229	422.69472451274	2
0	1231	422.838102370552	1
0	1233	424.07448210782	0
0	1238	432.256446840401	1
0	1242	433.393124304959	2
0	1243	434.32261478503	1
0	1248	435.311026503951	2
0	1249	436.019376266587	1
0	1251	438.217828805134	0
0	1256	443.044863361702	1
0	1260	443.739315707348	2
0	1261	444.444387813932	1
0	1266	444.950730694467	2
0	1267	445.463966435758	1
0	1272	445.96618126808	2
0	1273	446.632109989981	1
0	1275	446.933036909361	0
0	1280	449.074084902336	1
0	1284	450.99589859752	2
0	1285	451.49437866834	1
0	1290	452.786552650161	2
0	1294	453.052751051001	3
0	1298	453.115586253047	4
0	1299	453.544744713698	3
0	1304	453.64377358357	4
0	1305	453.646010978371	3
0	1310	453.669448665679	4
0	1311	453.761789404661	3
0	1313	453.883234060367	2
0	1315	453.887840669118	1
0	1320	454.31161607991	2
0	1321	455.074524565878	1
0	1323	456.168787705228	0
0	1328	460.003289812987	1
0	1329	460.535365978628	0
0	1334	460.651340027659	1
0	1338	460.808968063683	2
0	1342	461.450348981286	3
0	1343	464.039760446281	2
0	1345	464.064975957095	1
0	1347	465.566199387685	0
0	1352	469.99151280448	1
0	1356	471.09003740747	2
0	1357	472.577641635465	1
0	1359	473.551532464421	0
0	1364	473.709886162142	1
0	1365	473.852092593543	0
0	1370	475.619894481549	1
0	1374	476.018602855026	2
0	1375	477.356252607262	1
0	1377	477.414154132192	0
0	1382	478.742426243042	1
0	1386	479.652204456405	2
0	1387	480.08457144352	1
0	1389	481.468906521314	0
0	1394	482.651238387646	1
0	1395	483.426435100769	0
0	1400	485.804431455233	1
0	1404	487.816334338511	2
0	1405	488.737236984437	1
0	1410	490.675917062886	2
0	1411	490.863103463053	1
0	1413	492.260443902359	0
0	1418	492.708431381317	1
0	1422	494.837629551237	2
0	1426	494.838587411615	3
0	1427	495.309566412393	2
0	1429	495.804667342193	1
0	1434	496.354868378081	2
0	1438	496.748209607398	3
0	1439	499.259723384603	2
0	1444	499.680042581073	3
0	1448	499.730730059295	4
0	1449	499.859549183669	3
0	1454	499.867009138937	4
0	1455	499.987056367691	3
0	1460	500.65684302732	4
0	1461	500.669669730909	3
0	1463	500.953744155586	2
0	1465	501.48708712766	1
0	1470	502.410646999878	2
0	1471	502.517153601933	1
0	1476	502.622652249537	2
0	1477	503.259866996763	1
0	1482	504.01665481931	2
0	1483	504.20720225335	1
0	1485	506.295752125372	0
0	1490	507.245517878354	1
0	1494	507.391454603524	2
0	1495	508.29288630443	1
0	1500	511.04295688531	2
0	1504	513.387105370304	3
0	1508	513.65224355914	4
0	1512	515.17764512746	5
0	1513	515.359555970056	4
0	1515	517.644179874923	3
0	1517	518.182012866475	2
0	1522	518.899182405246	3
0	1523	520.688321013339	2
0	1525	520.779536890092	1
0	1530	520.820423409743	2
0	1531	521.687413735363	1
0	1533	526.65654934369	0
0	1538	531.233733519383	1
0	1539	531.801838191937	0
0	1544	532.047214276091	1
0	1548	535.766549687917	2
0	1549	535.895489902721	1
0	1554	536.809235108053	2
0	1555	537.335539733833	1
0	1560	540.693723082616	2
0	1561	542.860409167779	1
0	1566	543.876192441063	2
0	1567	544.074726789099	1
0	1572	544.099713230241	2
0	1573	545.64749914769	1
0	1578	546.612907335579	2
0	1579	547.440010162375	1
0	1581	548.463513685772	0
0	1586	550.155292622066	1
0	1590	552.169766223148	2
0	1591	552.530999471012	1
0	1596	553.001804864997	2
0	1600	553.426418060582	3
0	1601	554.697719762151	2
0	1606	555.097598274653	3
0	1607	555.130594653526	2
0	1612	555.152406187818	3
0	1616	555.261265804818	4
0	1617	555.899084125665	3
0	1619	556.132043179732	2
0	1624	558.649833607492	3
0	1625	559.581653116562	2
0	1630	562.115685512304	3
0	1634	562.162269796711	4
0	1635	562.337931422745	3
0	1640	562.576197586578	4
0	1641	562.971316105796	3
0	1643	563.387416067835	2
0	1648	564.819941250981	3
0	1649	565.680444700542	2
0	1651	566.340803145535	1
0	1653	566.425392823322	0
0	1658	569.599672886959	1
0	1662	572.116641391126	2
0	1663	573.587421488968	1
0	1665	574.061688536255	0
0	1670	575.228855217342	1
0	1674	575.414353425033	2
0	1678	576.543925472098	3
0	1679	577.035950562191	2
0	1681	577.311691986888	1
0	1683	577.573445935244	0
0	1688	581.459608479966	1
0	1692	584.348762999715	2
0	1696	584.809198911381	3
0	1700	585.336567381658	4
0	1701	587.66374906687	3
0	1703	588.388766113375	2
0	1705	589.474507525078	1
0	1710	589.87117677269	2
0	1711	590.734978845144	1
0	1713	592.119156282473	0
0	1718	592.589341312466	1
0	1722	593.672676782553	2
0	1723	599.627364501078	1
0	1725	600.159807632888	0
0	1730	601.045928244048	1
0	1731	603.162105373294	0
0	1736	608.276103076561	1
0	1740	608.392845195118	2
0	1741	608.759118384831	1
0	1746	609.945346957221	2
0	1747	610.793412870931	1
0	1752	613.92457216514	2
0	1753	614.253261333201	1
0	1755	614.495240253304	0
0	1760	615.719873065079	1
0	1761	618.009526639488	0
0	1766	620.267161131328	1
0	1767	620.672687245501	0
0	1772	621.856759258669	1
0	1773	622.083896092356	0
0	1778	625.550135595254	1
0	1782	627.554707391057	2
0	1783	628.367489310711	1
0	1785	629.581826655349	0
0	1790	630.687375625954	1
0	1794	630.77633734756	2
0	1798	631.412711867148	3
0	1802	633.394967546765	4
0	1803	633.658448526591	3
0	1805	634.057411993652	2
0	1810	635.212131647999	3
0	1811	635.470508071771	2
0	1813	638.204732532903	1
0	1818	643.338378234037	2
0	1819	643.581690033419	1
0	1824	645.257378754228	2
0	1825	645.91934949008	1
0	1830	646.950607865249	2
0	1831	648.412354514672	1
0	1833	649.301001788556	0
0	1838	649.426058065428	1
0	1842	650.201695622508	2
0	1846	651.27603211933	3
0	1847	651.871103585128	2
0	1852	652.969089263182	3
0	1853	653.08053571777	2
0	1858	653.363554696356	3
0	1859	655.266085335723	2
0	1864	655.76652294195	3
0	1865	656.047790591512	2
0	1867	656.28918751977	1
0	1869	656.886444331783	0
0	1874	656.961611302497	1
0	1878	658.025134714583	2
0	1879	658.348338797031	1
0	1881	658.658118458184	0
0	1886	664.831346038359	1
0	1890	664.942386228014	2
0	1891	664.948769696961	1
0	1893	665.276184510566	0
0	1898	667.505838404442	1
0	1899	668.211890825889	0
0	1904	669.483698275772	1
0	1905	670.216176570428	0
0	1910	670.534189274001	1
0	1914	670.893877445948	2
0	1918	671.798442415347	3
0	1922	672.392675549472	4
0	1923	672.712716150837	3
0	1925	673.427240872419	2
0	1930	674.262316932817	3
0	1931	674.39342534116	2
0	1933	677.00959456706	1
0	1938	680.510501053521	2
0	1939	680.924077053808	1
0	1941	682.018382968403	0
0	1946	684.792014276015	1
0	1950	686.756386054344	2
0	1951	688.886921717248	1
0	1956	688.976538191686	2
0	1957	689.170347393494	1
0	1959	691.909641312505	0
0	1964	693.525716433944	1
0	1965	694.471460059958	0
0	1970	695.815657732112	1
0	1974	697.166513179993	2
0	1978	699.937665994304	3
0	1979	700.409715977222	2
0	1984	700.486075947548	3
0	1988	700.505887396325	4
0	1992	700.679340356888	5
0	1993	700.830241705675	4
0	1995	701.57104078595	3
0	2000	702.086480857166	4
0	2001	702.798976476658	3
0	2003	703.168615100015	2
0	2008	703.444382992224	3
0	2009	704.137987716123	2
0	2014	705.480090720874	3
0	2015	705.600561893606	2
0	2020	707.190990299483	3
0	2024	707.346318677811	4
0	2025	707.495003707763	3
0	2030	708.355549159619	4
0	2034	709.331957007579	5
0	2035	709.902193751331	4
0	2040	710.158888168379	5
0	2041	711.310190135862	4
0	2046	711.655801619953	5
0	2047	711.733035897117	4
0	2049	712.302561197153	3
0	2051	712.931588625171	2
0	2056	713.178134822903	3
0	2060	714.725137772126	4
0	2061	714.881481766581	3
0	2063	715.741390495051	2
0	2065	716.914136117145	1
0	2070	717.257029606199	2
0	2074	718.310848936022	3
0	2075	718.569441581202	2
0	2077	719.675525999761	1
0	2079	719.941892185264	0
0	2084	720.147427300714	1
0	2088	720.220046168085	2
0	2092	721.287617192398	3
0	2093	721.734089816881	2
0	2098	726.205621070307	3
0	2099	726.33314018085	2
0	2101	728.954623128187	1
0	2106	730.646224843021	2
0	2107	731.032027214856	1
0	2109	732.399740649767	0
0	2114	734.515843647274	1
0	2115	735.158198009105	0
0	2120	735.311541079131	1
0	2124	735.49192364529	2
0	2128	736.331090044265	3
0	2132	736.343240965641	4
0	2136	736.447861052901	5
0	2137	736.468011231183	4
0	2139	737.847566026648	3
0	2141	738.21711129675	2
0	2143	738.627762004516	1
0	2145	739.197262542926	0
0	2150	742.669894722943	1
0	2151	744.164965342042	0
0	2156	745.715525146842	1
0	2160	747.267499300166	2
0	2161	752.416751858718	1
0	2166	759.450094279187	2
0	2167	762.002029620029	1
0	2172	763.84245632062	2
0	2176	764.015298387955	3
0	2177	764.498652332797	2
0	2182	764.513949169631	3
0	2183	766.169659038171	2
0	2185	766.259570754415	1
0	2190	768.323084393983	2
0	2191	771.220530143599	1
0	2193	771.610139403131	0
0	2198	772.632811199468	1
0	2199	773.313918267468	0
0	2204	773.945145081105	1
0	2208	774.460626558984	2
0	2209	775.137929404168	1
0	2211	775.729773560453	0
0	2216	777.380504260329	1
0	2220	777.505987005051	2
0	2221	777.573435230626	1
0	2226	777.876482607803	2
0	2230	778.598019383602	3
0	2234	778.673707570228	4
0	2235	778.886854598715	3
0	2237	779.156972037229	2
0	2239	781.115975417735	1
0	2241	781.447434411316	0
0	2246	791.484129692847	1
0	2250	793.503450736015	2
0	2251	794.383570532026	1
0	2256	794.611454472666	2
0	2257	795.647096442613	1
0	2262	795.723676763315	2
0	2263	796.759745847008	1
0	2265	797.094489452594	0
0	2270	797.20618696359	1
0	2274	799.900280954482	2
0	2275	801.374449153991	1
0	2277	801.432168551208	0
0	2282	803.4083663461	1
0	2283	803.904629617854	0
0	2288	804.580749626713	1
0	2292	805.924554506451	2
0	2293	805.964061937721	1
0	2298	806.603838063229	2
0	2302	806.659891487971	3
0	2306	806.877256681064	4
0	2307	807.696913289934	3
0	2312	808.112942884948	4
0	2313	808.320207944779	3
0	2318	809.060482626283	4
0	2319	810.782182207721	3
0	2324	810.985635608746	4
0	2325	811.650761768261	3
0	2327	813.131283375752	2
0	2329	814.760732238831	1
0	2334	815.378737702363	2
0	2335	816.973776254453	1
0	2340	817.805959964806	2
0	2344	817.895946865183	3
0	2348	818.235151085427	4
0	2352	818.494451366658	5
0	2353	818.758394128145	4
0	2355	819.618843995721	3
0	2357	820.20092420935	2
0	2362	820.984419002644	3
0	2363	821.709389981252	2
0	2368	821.924625041328	3
0	2369	822.340362599118	2
0	2374	823.58403361698	3
0	2375	823.948229638528	2
0	2377	824.58568993016	1
0	2379	825.150034849661	0
0	2384	828.920390491847	1
0	2385	831.215225691398	0
0	2390	831.803327650452	1
0	2391	832.509169906867	0
0	2396	833.077117700699	1
0	2400	833.167353494498	2
0	2404	834.603970027108	3
0	2405	835.122728148954	2
0	2407	835.419715403345	1
0	2412	836.79829941699	2
0	2416	836.984243476745	3
0	2420	837.57487995081	4
0	2424	837.910133159119	5
0	2425	837.960656652456	4
0	2427	839.230426513195	3
0	2432	839.486823579658	4
0	2433	839.736288378566	3
0	2435	840.902081746248	2
0	2437	840.911951757852	1
0	2439	845.689530924184	0
0	2444	845.801969520707	1
0	2445	847.153927759268	0
0	2450	847.404062349563	1
0	2454	849.902499621968	2
0	2455	851.422670590216	1
0	2460	852.761253245742	2
0	2464	853.522845434218	3
0	2468	853.675924403874	4
0	2469	854.767935546032	3
0	2474	855.181447336823	4
0	2478	855.467439804942	5
0	2482	855.655165675833	6
0	2483	855.913285263778	5
0	2488	856.043800368954	6
0	2489	857.29706618857	5
0	2494	857.859561786566	6
0	2495	857.900905973491	5
0	2497	858.102512884013	4
0	2499	858.926344333036	3
0	2504	859.475349847715	4
0	2505	859.682819255953	3
0	2507	859.731339732685	2
0	2509	860.524399956938	1
0	2514	861.72939492528	2
0	2515	862.762288517282	1
0	2520	864.130215842019	2
0	2521	864.599815041469	1
0	2523	865.284294402849	0
0	2528	866.999389538049	1
0	2532	867.571263216032	2
0	2536	868.75475338458	3
0	2540	868.959494423878	4
0	2541	869.045600613026	3
0	2543	869.267953630235	2
0	2545	870.293553424347	1
0	2550	874.110034058106	2
0	2554	874.191249245343	3
0	2555	875.502880572096	2
0	2557	877.170994624792	1
0	2559	878.166955632149	0
0	2564	878.582666531776	1
0	2568	878.91926701764	2
0	2569	879.108239993861	1
0	2574	879.117754626467	2
0	2575	879.704941557873	1
0	2577	880.69812103059	0
0	2582	885.078930679054	1
0	2586	885.706245800636	2
0	2590	886.460003808232	3
0	2594	887.250519300005	4
0	2598	888.030000190751	5
0	2599	888.494454448532	4
0	2601	888.646245228588	3
0	2603	889.367057804045	2
0	2605	892.220375937911	1
0	2610	894.446134084211	2
0	2614	896.071798520155	3
0	2618	896.962527961739	4
0	2619	897.134811361496	3
0	2624	897.273924857263	4
0	2625	897.35084872798	3
0	2627	897.852667531289	2
0	2629	898.764208626522	1
0	2631	899.075740649029	0
0	2636	899.194625140121	1
0	2640	900.773568872663	2
0	2644	902.165314159266	3
0	2645	902.624367118993	2
0	2647	903.705178866763	1
0	2652	908.32998846654	2
0	2653	910.563274927799	1
0	2658	910.836130488666	2
0	2662	911.210261930461	3
0	2663	911.919276907009	2
0	2668	913.3751442256	3
0	2672	915.104262514024	4
0	2673	915.148734876408	3
0	2678	915.773393099669	4
0	2679	915.824508144093	3
0	2681	917.967346551712	2
0	2686	919.47321125579	3
0	2690	920.663995147986	4
0	2691	920.686077221167	3
0	2693	920.958884378455	2
0	2695	924.635971233503	1
0	2700	924.683655475099	2
0	2704	926.003011989754	3
0	2708	926.360280000798	4
0	2709	926.36450744238	3
0	2714	927.063926096234	4
0	2715	927.406292779689	3
0	2717	927.441192052519	2
0	2719	927.531842630286	1
0	2724	929.083796947937	2
0	2728	929.585242491662	3
0	2729	930.455108920733	2
0	2731	931.657523913115	1
0	2736	932.729587402027	2
0	2737	932.947683416753	1
0	2742	932.997810107981	2
0	2743	933.690907667995	1
0	2748	934.994384735881	2
0	2749	936.485682915094	1
0	2754	937.283436575203	2
0	2755	937.622153089845	1
0	2757	938.19339319885	0
0	2762	939.363254488074	1
0	2766	939.567446887909	2
0	2767	939.936004058564	1
0	2772	940.314070130333	2
0	2776	940.438588865151	3
0	2777	940.882985380947	2
0	2782	944.357034604678	3
0	2783	945.039500190826	2
0	2785	945.453651899378	1
0	2790	946.542656812329	2
0	2794	946.609208993578	3
0	2795	946.814132097157	2
0	2797	948.324050966628	1
0	2799	949.247734100136	0
0	2804	952.178156720094	1
0	2808	952.884636809799	2
0	2809	954.905028613204	1
0	2811	956.819785900416	0
0	2816	961.408048217801	1
0	2820	961.525939112605	2
0	2821	962.95869804698	1
0	2826	963.367946515992	2
0	2830	964.570048963206	3
0	2831	965.290613919191	2
0	2833	966.337067497121	1
0	2835	967.438148835522	0
0	2840	967.456262030337	1
0	2844	971.233334344738	2
0	2848	971.860727046898	3
0	2849	972.996614794343	2
0	2851	974.363714337765	1
0	2853	976.719051865967	0
0	2858	978.34216324786	1
0	2859	979.512807239942	0
0	2864	981.650113960035	1
0	2868	982.220409902475	2
0	2869	982.931259909611	1
0	2871	984.929665417117	0
0	2876	987.025254797809	1
0	2877	987.437560067268	0
0	2882	988.481227945664	1
0	2886	989.951570012639	2
0	2887	990.624173916789	1
0	2889	991.002056883797	0
0	2894	992.605672363014	1
0	2895	993.859401635732	0
0	2900	996.885440133263	1
0	2901	998.050552040968	0
0	2906	998.955684701534	1
0	2910	999.171917246812	2
0	2911	999.750853898993	1
1	368	100.24687756654	6
1	370	102.913084755529	7
1	372	103.317076316706	6
1	376	104.562934836039	7
1	378	104.660987962875	6
1	382	106.214565615632	5
1	386	107.212453858375	6
1	388	107.397282908471	7
1	390	109.713438239823	6
1	394	111.188072523024	5
1	398	111.378582266872	6
1	400	111.480583902474	7
1	402	111.495772447933	6
1	406	112.215600282749	5
1	410	112.329662491904	6
1	412	115.505965450185	5
1	416	116.275805772109	4
1	420	116.292336736713	5
1	422	116.318714263054	4
1	426	117.635996322923	3
1	430	117.688738209909	2
1	434	119.097454014205	1
1	438	119.472270809923	2
1	440	119.622315625176	3
1	442	119.803687380486	4
1	444	121.497398076976	5
1	446	121.821408311669	6
1	448	122.899974335704	7
1	450	124.100258465641	6
1	454	124.308210382118	7
1	456	124.564037173965	6
1	460	124.790025617658	7
1	462	129.764208511496	6
1	466	130.413794459779	5
1	470	130.429801715391	6
1	472	130.801114728741	5
1	476	130.907926658391	6
1	478	131.11754410947	7
1	480	140.072618591973	6
1	484	140.48797082711	7
1	486	142.432158834309	6
1	490	144.849613435896	7
1	492	145.22194149333	6
1	496	145.469028009578	5
1	500	145.648878990023	4
1	504	145.846022243632	5
1	506	147.839860965546	4
1	510	148.639536979292	3
1	514	149.082330473465	4
1	516	149.537276027589	3
1	520	150.176104758246	4
1	522	150.456389602399	5
1	524	151.030840349411	4
1	528	152.136671744461	3
1	532	152.324134733822	4
1	534	154.585025312795	5
1	536	155.563833736496	4
1	540	157.257758379349	3
1	544	157.619324037527	4
1	546	158.871475758024	5
1	548	159.220922443462	6
1	550	159.451215450303	7
1	552	161.51688399623	6
1	556	164.741804053209	5
1	560	165.60313981209	4
1	564	167.05432463858	5
1	566	168.566449311287	4
1	570	168.838366824786	5
1	572	168.842445785695	6
1	574	173.102752064798	5
1	578	175.925810432974	6
1	580	176.115377905067	7
1	582	176.183791938463	6
1	586	176.850287461608	5
1	590	177.550629780797	6
1	592	179.264834566787	7
1	594	181.122877638647	6
1	598	181.778766070487	7
1	600	182.699475898372	6
1	604	183.339324001149	7
1	606	186.22025469399	6
1	610	186.752596920662	5
1	614	187.206091113681	4
1	618	190.100521140953	5
1	620	191.363065537893	6
1	622	193.562337993321	5
1	626	196.468512354223	4
1	630	196.885640179763	3
1	634	197.167882850052	4
1	636	197.943300627974	5
1	638	198.15306341596	4
1	642	198.821632066517	5
1	644	199.273189574815	6
1	646	199.549504336735	5
1	650	199.927865346696	4
1	654	200.166476441803	5
1	656	200.636668560286	4
1	660	201.262825123946	3
1	664	202.627982619658	4
1	666	203.085271720129	5
1	668	204.575974392862	6
1	670	205.621757801608	5
1	674	206.359404823815	6
1	676	207.021115896116	5
1	680	207.440120904677	6
1	682	207.606291062152	7
1	684	208.719490744615	6
1	688	208.948914896401	7
1	690	209.557867186673	6
1	694	211.439268243691	5
1	698	211.69633858721	4
1	702	211.775729882335	3
1	706	212.160454188403	4
1	708	213.379686188225	5
1	710	214.50569420687	6
1	712	216.245681280019	7
1	714	233.006455193138	6
1	718	233.15752247425	7
1	720	233.630261981887	6
1	724	234.224936053932	5
1	728	234.335050240541	6
1	730	234.872636841375	5
1	734	235.452650414611	4
1	738	237.408541167508	5
1	740	238.031742387187	6
1	742	238.160814418728	7
1	744	240.01306569205	6
1	748	240.976908474118	7
1	750	243.619673115518	6
1	754	243.936061990686	5
1	758	246.788255620276	6
1	760	253.337565080299	7
1	762	254.71832026391	6
1	766	255.597592214942	5
1	770	255.815731768877	6
1	772	256.433874174921	7
1	774	257.181895886583	6
1	778	257.360290887221	7
1	780	258.535717492839	6
1	784	258.795238962488	7
1	786	258.813456457548	6
1	790	262.746446071985	5
1	794	263.239265059664	4
1	798	265.080998518536	5
1	800	266.717577022824	4
1	804	267.276686990007	5
1	806	268.4482032095	6
1	808	268.689803335032	7
1	810	279.452075476179	6
1	814	280.35679002898	7
1	816	288.939956527242	6
1	820	289.283122781529	5
1	824	290.55539404365	4
1	828	291.805071480707	5
1	830	292.472703955713	6
1	832	293.013506992144	5
1	836	293.214084846674	6
1	838	293.844555835172	5
1	842	296.06084710954	6
1	844	296.230951216889	5
1	848	297.2621108002	6
1	850	298.990842090664	5
1	854	299.8324979488	6
1	856	302.38776683887	5
1	860	302.903812567242	6
1	862	303.044578346283	7
1	864	306.151861198656	6
1	868	306.322042645808	5
1	872	307.057467420925	4
1	876	308.703916589571	3
1	880	309.713832105396	4
1	882	310.038597354037	5
1	884	310.953989460195	6
1	886	311.846523660291	7
1	888	313.751887309652	6
1	892	313.951265751831	5
1	896	314.401876137118	6
1	898	314.992677578964	5
1	902	316.122519581718	6
1	904	316.539066686218	5
1	908	317.643330405795	6
1	910	318.171090857521	7
1	912	318.636273898263	6
1	916	319.378290060333	5
1	920	319.879076706339	6
1	922	323.06044713077	5
1	926	324.43344560348	4
1	930	324.928162722924	5
1	932	326.866479242837	4
1	936	329.138378972344	3
1	940	329.246264163409	4
1	942	329.424359086713	5
1	944	330.51356706653	6
1	946	331.091541489077	5
1	950	331.779553705191	6
1	952	337.553145139883	7
1	954	343.341441826418	6
1	958	343.689308677926	5
1	962	344.167004450842	6
1	964	347.113824035614	5
1	968	347.83432466721	4
1	972	348.058248570214	3
1	976	348.732845285142	2
1	980	348.96769908986	3
1	982	349.747876257076	4
1	984	350.03446866398	5
1	986	351.233608705424	4
1	990	351.434366642544	5
1	992	351.778371618418	4
1	996	354.170815223074	3
1	1000	354.222533948361	2
1	1004	354.460782726001	3
1	1006	354.952379371228	4
1	1008	356.615275827708	5
1	1010	357.190665309336	6
1	1012	357.949756982223	7
1	1014	359.498617340857	6
1	1018	360.400828098527	5
1	1022	363.620277276991	4
1	1026	364.75376725085	5
1	1028	364.845728017565	6
1	1030	366.058456322409	7
1	1032	366.163038281176	6
1	1036	367.145612759164	7
1	1038	368.008111328992	6
1	1042	368.534639346951	5
1	1046	369.698760725294	6
1	1048	369.707130696847	5
1	1052	370.008471236863	6
1	1054	370.8606181128	7
1	1056	371.767589784901	6
1	1060	374.817636067085	5
1	1064	377.113079663582	6
1	1066	377.207988288831	7
1	1068	377.975087574769	6
1	1072	378.934157782221	5
1	1076	379.721512031498	6
1	1078	379.982374678782	5
1	1082	380.205711425716	4
1	1086	381.361789800521	3
1	1090	382.44962314319	4
1	1092	382.622432190557	5
1	1094	384.376947597011	6
1	1096	385.21324911627	5
1	1100	390.064846757167	6
1	1102	392.188667072037	5
1	1106	394.113380532413	6
1	1108	394.735678956353	5
1	1112	395.791254073709	4
1	1116	395.805707665648	5
1	1118	395.930948518062	6
1	1120	396.090985684135	5
1	1124	396.135672850989	4
1	1128	396.262734083935	5
1	1130	396.638697997158	4
1	1134	397.52112824741	3
1	1138	397.728875054671	4
1	1140	399.703005089262	5
1	1142	400.208645144774	6
1	1144	400.243962306305	7