version 3
run General-11-20221103-10:28:22-6760
attr configname General
attr datetime 20221103-10:28:22
attr datetimef 20221103-102822
attr experiment General
attr inifile block.ini
attr iterationvars "$0=2, $1=30"
attr iterationvarsd 2/30
attr iterationvarsf 2,30-
attr measurement "$0=2, $1=30"
attr network Block
attr processid 6760
attr repetition 1
attr replication #1
attr resultdir results
attr runnumber 11
attr seedset 11
config network Block
config repeat 5
config sim-time-limit 1000s
config warmup-period 100s
config **.alloca.resourceModuleName "\"risorse\""
config **.dealloca.resourceModuleName "\"risorse\""
config **.is.delay exponential(3s)
config **.servente.serviceTime exponential(2s)
config **.dealloca.resourceAmount 2
config **.alloca.resourceAmount 2
config **.risorse.amount 6
config **.sorgente.numJobs (30)
config **.result-recording-modes all

vector 0 Block.servente queueLength:vector ETV
attr interpolationmode sample-hold
attr recordingmode vector
attr title "queue length"
vector 1 Block.servente queueingTime:vector ETV
attr interpolationmode none
attr recordingmode vector
attr title "queueing time at dequeue"
attr unit s
vector 2 Block.alloca queueLength:vector ETV
attr interpolationmode sample-hold
attr recordingmode vector
attr title "queue length"
vector 3 Block.alloca queueingTime:vector ETV
attr interpolationmode none
attr recordingmode vector
attr title "queueing time at dequeue"
attr unit s
vector 4 Block.risorse amount:vector ETV
attr interpolationmode sample-hold
attr recordingmode vector
attr title "available resource"
vector 5 Block.is delayedJobs:vector ETV
attr interpolationmode sample-hold
attr recordingmode vector
attr title "number of delayed jobs"
0	341	104.632760657768	1
0	343	104.632760657768	2
0	345	105.404388014122	1
0	347	105.404388014122	2
0	351	108.516343173205	1
0	353	108.516343173205	2
0	355	108.999985936252	1
0	357	108.999985936252	2
0	365	115.03626674567	1
0	367	115.03626674567	2
0	369	115.85142243615	1
0	371	115.85142243615	2
0	373	117.244819818836	1
0	375	117.244819818836	2
0	381	119.794794785391	1
0	383	119.794794785391	2
0	385	120.724958586036	1
0	387	120.724958586036	2
0	389	121.070262904332	1
0	391	121.070262904332	2
0	393	121.182192574535	1
0	395	121.182192574535	2
0	399	123.286302336712	1
0	401	123.286302336712	2
0	403	123.368348688437	1
0	405	123.368348688437	2
0	407	123.886059481423	1
0	409	123.886059481423	2
0	419	125.10886828244	1
0	421	125.10886828244	2
0	423	125.778359991805	1
0	425	125.778359991805	2
0	431	128.388082105079	1
0	433	128.388082105079	2
0	435	129.030625511144	1
0	437	129.030625511144	2
0	441	129.232838843655	1
0	443	129.232838843655	2
0	455	136.520667809234	1
0	457	136.520667809234	2
0	459	136.708376770449	1
0	461	136.708376770449	2
0	465	137.394657631041	1
0	467	137.394657631041	2
0	471	137.628901981738	1
0	473	137.628901981738	2
0	475	137.929503812944	1
0	477	137.929503812944	2
0	483	139.819205557459	1
0	485	139.819205557459	2
0	487	140.805485460648	1
0	489	140.805485460648	2
0	493	141.923833337155	1
0	495	141.923833337155	2
0	499	143.516342673599	1
0	501	143.516342673599	2
0	505	144.523689545371	1
0	507	144.523689545371	2
0	515	145.576704883175	1
0	517	145.576704883175	2
0	521	150.731620861589	1
0	523	150.731620861589	2
0	525	153.428970263831	1
0	527	153.428970263831	2
0	529	154.197971713249	1
0	531	154.197971713249	2
0	533	154.247002506672	1
0	535	154.247002506672	2
0	543	158.200669931845	1
0	545	158.200669931845	2
0	547	158.796828532429	1
0	549	158.796828532429	2
0	553	160.245561644866	1
0	555	160.245561644866	2
0	559	160.682630965545	1
0	561	160.682630965545	2
0	567	162.122090382867	1
0	569	162.122090382867	2
0	571	162.197336503168	1
0	573	162.197336503168	2
0	579	164.002259737683	1
0	581	164.002259737683	2
0	583	164.229070241919	1
0	585	164.229070241919	2
0	589	164.698717951987	1
0	591	164.698717951987	2
0	599	168.635616100351	1
0	601	168.635616100351	2
0	605	171.121239560691	1
0	607	171.121239560691	2
0	609	171.711691964624	1
0	611	171.711691964624	2
0	615	174.294682952918	1
0	617	174.294682952918	2
0	623	179.185776969209	1
0	625	179.185776969209	2
0	629	183.371762294483	1
0	631	183.371762294483	2
0	635	186.670125501024	1
0	637	186.670125501024	2
0	639	187.026511940584	1
0	641	187.026511940584	2
0	647	187.892316949031	1
0	649	187.892316949031	2
0	651	188.251808754214	1
0	653	188.251808754214	2
0	655	188.561794325813	1
0	657	188.561794325813	2
0	659	188.71419562291	1
0	661	188.71419562291	2
0	665	189.848761823246	1
0	667	189.848761823246	2
0	671	191.331487944509	1
0	673	191.331487944509	2
0	679	192.059522896122	1
0	681	192.059522896122	2
0	687	197.219749687411	1
0	689	197.219749687411	2
0	693	200.014966190325	1
0	695	200.014966190325	2
0	697	200.740389525332	1
0	699	200.740389525332	2
0	705	203.131087680142	1
0	707	203.131087680142	2
0	711	206.169652821938	1
0	713	206.169652821938	2
0	717	207.398404637059	1
0	719	207.398404637059	2
0	723	209.476198831277	1
0	725	209.476198831277	2
0	729	213.896332818605	1
0	731	213.896332818605	2
0	733	214.278108646886	1
0	735	214.278108646886	2
0	743	219.987127330955	1
0	745	219.987127330955	2
0	749	223.674925343724	1
0	751	223.674925343724	2
0	753	224.009771555475	1
0	755	224.009771555475	2
0	757	225.637862698048	1
0	759	225.637862698048	2
0	767	228.940565267144	1
0	769	228.940565267144	2
0	771	231.622052354347	1
0	773	231.622052354347	2
0	775	232.397173484005	1
0	777	232.397173484005	2
0	779	237.257431018769	1
0	781	237.257431018769	2
0	787	238.379796292239	1
0	789	238.379796292239	2
0	797	244.483249593908	1
0	799	244.483249593908	2
0	801	245.552642688056	1
0	803	245.552642688056	2
0	807	248.272839985793	1
0	809	248.272839985793	2
0	811	248.986706997641	1
0	813	248.986706997641	2
0	817	249.563395256504	1
0	819	249.563395256504	2
0	823	250.626497481177	1
0	825	250.626497481177	2
0	827	251.038300965517	1
0	829	251.038300965517	2
0	835	253.267436216987	1
0	837	253.267436216987	2
0	839	254.617676389479	1
0	841	254.617676389479	2
0	845	256.707006822826	1
0	847	256.707006822826	2
0	851	257.052797891321	1
0	853	257.052797891321	2
0	861	261.845528495767	1
0	863	261.845528495767	2
0	865	262.01410389319	1
0	867	262.01410389319	2
0	871	262.732956097098	1
0	873	262.732956097098	2
0	875	262.73330063184	1
0	877	262.73330063184	2
0	881	263.327633729674	1
0	883	263.327633729674	2
0	887	263.974514725304	1
0	889	263.974514725304	2
0	897	269.021126679213	1
0	899	269.021126679213	2
0	901	269.994271032431	1
0	903	269.994271032431	2
0	905	270.067983232961	1
0	907	270.067983232961	2
0	909	270.960510526624	1
0	911	270.960510526624	2
0	915	271.104723968655	1
0	917	271.104723968655	2
0	925	273.676570881273	1
0	927	273.676570881273	2
0	929	273.748549541761	1
0	931	273.748549541761	2
0	933	274.795256160665	1
0	935	274.795256160665	2
0	939	275.418219365423	1
0	941	275.418219365423	2
0	949	278.149218390615	1
0	951	278.149218390615	2
0	957	280.464080096031	1
0	959	280.464080096031	2
0	963	281.566173113625	1
0	965	281.566173113625	2
0	967	281.591330801964	1
0	969	281.591330801964	2
0	971	281.655522846474	1
0	973	281.655522846474	2
0	977	282.41155946713	1
0	979	282.41155946713	2
0	981	282.438353527638	1
0	983	282.438353527638	2
0	989	282.926810700058	1
0	991	282.926810700058	2
0	997	290.68983971043	1
0	999	290.68983971043	2
0	1003	292.550192159036	1
0	1005	292.550192159036	2
0	1013	295.726111422407	1
0	1015	295.726111422407	2
0	1017	297.842769352427	1
0	1019	297.842769352427	2
0	1021	298.257548043189	1
0	1023	298.257548043189	2
0	1029	302.388104632379	1
0	1031	302.388104632379	2
0	1037	305.549279097711	1
0	1039	305.549279097711	2
0	1043	307.636231634372	1
0	1045	307.636231634372	2
0	1047	308.979120680303	1
0	1049	308.979120680303	2
0	1051	309.552023932252	1
0	1053	309.552023932252	2
0	1055	310.129700048466	1
0	1057	310.129700048466	2
0	1059	310.213281925787	1
0	1061	310.213281925787	2
0	1071	314.426099466546	1
0	1073	314.426099466546	2
0	1075	315.553397422061	1
0	1077	315.553397422061	2
0	1081	317.161100035904	1
0	1083	317.161100035904	2
0	1087	319.655366912127	1
0	1089	319.655366912127	2
0	1093	321.603217130713	1
0	1095	321.603217130713	2
0	1097	322.151112127601	1
0	1099	322.151112127601	2
0	1103	324.498118942311	1
0	1105	324.498118942311	2
0	1109	325.167832270258	1
0	1111	325.167832270258	2
0	1117	326.798958992148	1
0	1119	326.798958992148	2
0	1125	328.983509035936	1
0	1127	328.983509035936	2
0	1131	330.187261386786	1
0	1133	330.187261386786	2
0	1135	334.330870393449	1
0	1137	334.330870393449	2
0	1139	334.733062564046	1
0	1141	334.733062564046	2
0	1151	336.597295420346	1
0	1153	336.597295420346	2
0	1155	336.986376163843	1
0	1157	336.986376163843	2
0	1163	342.050828580817	1
0	1165	342.050828580817	2
0	1167	342.885368518557	1
0	1169	342.885368518557	2
0	1171	343.338743119325	1
0	1173	343.338743119325	2
0	1175	343.578829154358	1
0	1177	343.578829154358	2
0	1179	344.324078581138	1
0	1181	344.324078581138	2
0	1189	345.716521925189	1
0	1191	345.716521925189	2
0	1197	348.250923562437	1
0	1199	348.250923562437	2
0	1205	349.692251511615	1
0	1207	349.692251511615	2
0	1209	351.717449767341	1
0	1211	351.717449767341	2
0	1213	352.06285806421	1
0	1215	352.06285806421	2
0	1217	352.194991203738	1
0	1219	352.194991203738	2
0	1223	353.341442714242	1
0	1225	353.341442714242	2
0	1229	354.827550120035	1
0	1231	354.827550120035	2
0	1239	356.595613372084	1
0	1241	356.595613372084	2
0	1243	356.82413514476	1
0	1245	356.82413514476	2
0	1247	357.725976785175	1
0	1249	357.725976785175	2
0	1251	358.816925820609	1
0	1253	358.816925820609	2
0	1261	360.941482948856	1
0	1263	360.941482948856	2
0	1271	364.334863954081	1
0	1273	364.334863954081	2
0	1275	364.445978950285	1
0	1277	364.445978950285	2
0	1279	364.565604216924	1
0	1281	364.565604216924	2
0	1285	366.260078771956	1
0	1287	366.260078771956	2
0	1289	366.842731418075	1
0	1291	366.842731418075	2
0	1293	367.926457445574	1
0	1295	367.926457445574	2
0	1307	374.672156661369	1
0	1309	374.672156661369	2
0	1311	375.003485348036	1
0	1313	375.003485348036	2
0	1317	376.521007265586	1
0	1319	376.521007265586	2
0	1321	377.568250761521	1
0	1323	377.568250761521	2
0	1329	382.114602548208	1
0	1331	382.114602548208	2
0	1337	384.805767843867	1
0	1339	384.805767843867	2
0	1343	387.734790375434	1
0	1345	387.734790375434	2
0	1347	388.51985730605	1
0	1349	388.51985730605	2
0	1351	388.866775085292	1
0	1353	388.866775085292	2
0	1361	390.564799709127	1
0	1363	390.564799709127	2
0	1365	391.935914560955	1
0	1367	391.935914560955	2
0	1369	393.42147095566	1
0	1371	393.42147095566	2
0	1379	401.705936931015	1
0	1381	401.705936931015	2
0	1383	402.084930806244	1
0	1385	402.084930806244	2
0	1387	402.45008942432	1
0	1389	402.45008942432	2
0	1397	406.537998632142	1
0	1399	406.537998632142	2
0	1403	407.055842177763	1
0	1405	407.055842177763	2
0	1407	407.856899819756	1
0	1409	407.856899819756	2
0	1413	408.621535718693	1
0	1415	408.621535718693	2
0	1417	411.255722161743	1
0	1419	411.255722161743	2
0	1421	411.827391365447	1
0	1423	411.827391365447	2
0	1425	414.015372918966	1
0	1427	414.015372918966	2
0	1431	415.441780412924	1
0	1433	415.441780412924	2
0	1441	417.327581052389	1
0	1443	417.327581052389	2
0	1447	419.247050940135	1
0	1449	419.247050940135	2
0	1453	419.933095435033	1
0	1455	419.933095435033	2
0	1463	424.304817731939	1
0	1465	424.304817731939	2
0	1469	428.347243972053	1
0	1471	428.347243972053	2
0	1473	429.026266608886	1
0	1475	429.026266608886	2
0	1481	433.226344076582	1
0	1483	433.226344076582	2
0	1487	436.412188806532	1
0	1489	436.412188806532	2
0	1493	442.541645653934	1
0	1495	442.541645653934	2
0	1497	442.769128594822	1
0	1499	442.769128594822	2
0	1501	443.142854231918	1
0	1503	443.142854231918	2
0	1511	446.332096412228	1
0	1513	446.332096412228	2
0	1517	453.035172748394	1
0	1519	453.035172748394	2
0	1521	454.165772735313	1
0	1523	454.165772735313	2
0	1529	456.255899457886	1
0	1531	456.255899457886	2
0	1533	457.618247187438	1
0	1535	457.618247187438	2
0	1541	462.829650749936	1
0	1543	462.829650749936	2
0	1545	463.689067058354	1
0	1547	463.689067058354	2
0	1553	468.297039939119	1
0	1555	468.297039939119	2
0	1559	469.709477608469	1
0	1561	469.709477608469	2
0	1565	477.791803910759	1
0	1567	477.791803910759	2
0	1571	479.663341558734	1
0	1573	479.663341558734	2
0	1575	479.881857049326	1
0	1577	479.881857049326	2
0	1583	485.87644500593	1
0	1585	485.87644500593	2
0	1587	489.228743383216	1
0	1589	489.228743383216	2
0	1595	495.352857376754	1
0	1597	495.352857376754	2
0	1601	498.690438132132	1
0	1603	498.690438132132	2
0	1607	508.813669451015	1
0	1609	508.813669451015	2
0	1611	510.596966335557	1
0	1613	510.596966335557	2
0	1619	512.362770533315	1
0	1621	512.362770533315	2
0	1625	519.539132668451	1
0	1627	519.539132668451	2
0	1629	519.935533048255	1
0	1631	519.935533048255	2
0	1633	520.189641177693	1
0	1635	520.189641177693	2
0	1637	520.950666776882	1
0	1639	520.950666776882	2
0	1641	521.007365445365	1
0	1643	521.007365445365	2
0	1653	522.769402395802	1
0	1655	522.769402395802	2
0	1659	530.211020922043	1
0	1661	530.211020922043	2
0	1665	534.160923467471	1
0	1667	534.160923467471	2
0	1669	534.283076530529	1
0	1671	534.283076530529	2
0	1675	536.109436746242	1
0	1677	536.109436746242	2
0	1683	538.035210027232	1
0	1685	538.035210027232	2
0	1687	538.342932767702	1
0	1689	538.342932767702	2
0	1695	540.707682135631	1
0	1697	540.707682135631	2
0	1703	549.000544859484	1
0	1705	549.000544859484	2
0	1709	554.868614150299	1
0	1711	554.868614150299	2
0	1713	555.022715319466	1
0	1715	555.022715319466	2
0	1721	558.692400629609	1
0	1723	558.692400629609	2
0	1725	559.327032909454	1
0	1727	559.327032909454	2
0	1731	561.316871729374	1
0	1733	561.316871729374	2
0	1737	563.049326935407	1
0	1739	563.049326935407	2
0	1741	564.638335154226	1
0	1743	564.638335154226	2
0	1749	567.138632820237	1
0	1751	567.138632820237	2
0	1755	567.779951352271	1
0	1757	567.779951352271	2
0	1763	571.271254930176	1
0	1765	571.271254930176	2
0	1769	574.424584575343	1
0	1771	574.424584575343	2
0	1773	574.794191250602	1
0	1775	574.794191250602	2
0	1779	576.406920703934	1
0	1781	576.406920703934	2
0	1785	577.354895187877	1
0	1787	577.354895187877	2
0	1791	578.603337698804	1
0	1793	578.603337698804	2
0	1799	584.829560971605	1
0	1801	584.829560971605	2
0	1805	587.49512083438	1
0	1807	587.49512083438	2
0	1811	588.564011678952	1
0	1813	588.564011678952	2
0	1817	590.763205155346	1
0	1819	590.763205155346	2
0	1821	591.374045902738	1
0	1823	591.374045902738	2
0	1825	593.070675258199	1
0	1827	593.070675258199	2
0	1835	596.214580472164	1
0	1837	596.214580472164	2
0	1839	597.209700897268	1
0	1841	597.209700897268	2
0	1845	597.814693443766	1
0	1847	597.814693443766	2
0	1853	601.240475900719	1
0	1855	601.240475900719	2
0	1859	608.997053026974	1
0	1861	608.997053026974	2
0	1863	609.568022686905	1
0	1865	609.568022686905	2
0	1867	613.151260624104	1
0	1869	613.151260624104	2
0	1873	614.092617647046	1
0	1875	614.092617647046	2
0	1879	614.710261463675	1
0	1881	614.710261463675	2
0	1885	616.367066631095	1
0	1887	616.367066631095	2
0	1889	616.966816514019	1
0	1891	616.966816514019	2
0	1897	618.62622322245	1
0	1899	618.62622322245	2
0	1903	620.383513611342	1
0	1905	620.383513611342	2
0	1909	621.40849640766	1
0	1911	621.40849640766	2
0	1913	621.6565011527	1
0	1915	621.6565011527	2
0	1919	621.905525234942	1
0	1921	621.905525234942	2
0	1927	623.591344611025	1
0	1929	623.591344611025	2
0	1935	625.46348340429	1
0	1937	625.46348340429	2
0	1941	628.481734535263	1
0	1943	628.481734535263	2
0	1945	628.776454670211	1
0	1947	628.776454670211	2
0	1949	629.472117657221	1
0	1951	629.472117657221	2
0	1953	630.34017489541	1
0	1955	630.34017489541	2
0	1957	630.402199338533	1
0	1959	630.402199338533	2
0	1963	631.655490488507	1
0	1965	631.655490488507	2
0	1979	640.915842928356	1
0	1981	640.915842928356	2
0	1983	643.510930786049	1
0	1985	643.510930786049	2
0	1987	643.809998768026	1
0	1989	643.809998768026	2
0	1995	647.807513268609	1
0	1997	647.807513268609	2
0	1999	647.930756914952	1
0	2001	647.930756914952	2
0	2009	649.833728273787	1
0	2011	649.833728273787	2
0	2013	650.392515575412	1
0	2015	650.392515575412	2
0	2021	654.003407904937	1
0	2023	654.003407904937	2
0	2025	654.403585638213	1
0	2027	654.403585638213	2
0	2029	656.212494346006	1
0	2031	656.212494346006	2
0	2037	657.515414484663	1
0	2039	657.515414484663	2
0	2043	661.747595283186	1
0	2045	661.747595283186	2
0	2049	663.866865534417	1
0	2051	663.866865534417	2
0	2053	664.178034592331	1
0	2055	664.178034592331	2
0	2061	667.409725296404	1
0	2063	667.409725296404	2
0	2065	667.672631962052	1
0	2067	667.672631962052	2
0	2069	668.328188177157	1
0	2071	668.328188177157	2
0	2073	669.405055333654	1
0	2075	669.405055333654	2
0	2083	671.422895762479	1
0	2085	671.422895762479	2
0	2087	671.7525241283	1
0	2089	671.7525241283	2
0	2095	672.697260032542	1
0	2097	672.697260032542	2
0	2099	672.780619498103	1
0	2101	672.780619498103	2
0	2111	678.349401185576	1
0	2113	678.349401185576	2
0	2115	680.146771258832	1
0	2117	680.146771258832	2
0	2123	686.389682282397	1
0	2125	686.389682282397	2
0	2129	687.516486532813	1
0	2131	687.516486532813	2
0	2133	689.447243005723	1
0	2135	689.447243005723	2
0	2139	690.598804058844	1
0	2141	690.598804058844	2
0	2145	698.693741210505	1
0	2147	698.693741210505	2
0	2149	699.202918710792	1
0	2151	699.202918710792	2
0	2159	702.663763409581	1
0	2161	702.663763409581	2
0	2163	704.282765035527	1
0	2165	704.282765035527	2
0	2167	706.532608245422	1
0	2169	706.532608245422	2
0	2171	709.79224430282	1
0	2173	709.79224430282	2
0	2179	712.2811706182	1
0	2181	712.2811706182	2
0	2187	716.890315111668	1
0	2189	716.890315111668	2
0	2191	717.567534820418	1
0	2193	717.567534820418	2
0	2195	718.591473890562	1
0	2197	718.591473890562	2
0	2201	719.14262320746	1
0	2203	719.14262320746	2
0	2213	723.216556860161	1
0	2215	723.216556860161	2
0	2219	728.798484908365	1
0	2221	728.798484908365	2
0	2223	728.947981907267	1
0	2225	728.947981907267	2
0	2227	731.1267129851	1
0	2229	731.1267129851	2
0	2231	731.374402107915	1
0	2233	731.374402107915	2
0	2241	732.577001577056	1
0	2243	732.577001577056	2
0	2249	738.192729957575	1
0	2251	738.192729957575	2
0	2253	739.998817260127	1
0	2255	739.998817260127	2
0	2261	742.298683347673	1
0	2263	742.298683347673	2
0	2265	742.423039457379	1
0	2267	742.423039457379	2
0	2271	743.451609851361	1
0	2273	743.451609851361	2
0	2277	744.314495706009	1
0	2279	744.314495706009	2
0	2281	744.64508090057	1
0	2283	744.64508090057	2
0	2289	746.483543135371	1
0	2291	746.483543135371	2
0	2293	747.872475298138	1
0	2295	747.872475298138	2
0	2301	749.493650122272	1
0	2303	749.493650122272	2
0	2309	751.783694741701	1
0	2311	751.783694741701	2
0	2313	753.751792651965	1
0	2315	753.751792651965	2
0	2319	754.361956958548	1
0	2321	754.361956958548	2
0	2325	757.637974553084	1
0	2327	757.637974553084	2
0	2329	757.699667884985	1
0	2331	757.699667884985	2
0	2333	757.772967102898	1
0	2335	757.772967102898	2
0	2341	760.780659184873	1
0	2343	760.780659184873	2
0	2347	761.419743116008	1
0	2349	761.419743116008	2
0	2351	761.521789449007	1
0	2353	761.521789449007	2
0	2355	761.716275462006	1
0	2357	761.716275462006	2
0	2361	763.057408940626	1
0	2363	763.057408940626	2
0	2367	764.90856507279	1
0	2369	764.90856507279	2
0	2371	766.653437488019	1
0	2373	766.653437488019	2
0	2379	768.862643867147	1
0	2381	768.862643867147	2
0	2383	769.352317518198	1
0	2385	769.352317518198	2
0	2389	769.786419428344	1
0	2391	769.786419428344	2
0	2395	771.31596375514	1
0	2397	771.31596375514	2
0	2405	772.516744828044	1
0	2407	772.516744828044	2
0	2417	778.082269629653	1
0	2419	778.082269629653	2
0	2421	778.371034231491	1
0	2423	778.371034231491	2
0	2429	781.867195229399	1
0	2431	781.867195229399	2
0	2435	782.813588901352	1
0	2437	782.813588901352	2
0	2439	783.781700677644	1
0	2441	783.781700677644	2
0	2445	785.853539872528	1
0	2447	785.853539872528	2
0	2451	786.851758892709	1
0	2453	786.851758892709	2
0	2459	792.9918019267	1
0	2461	792.9918019267	2
0	2463	793.22425761822	1
0	2465	793.22425761822	2
0	2469	795.096874596219	1
0	2471	795.096874596219	2
0	2473	797.744292307907	1
0	2475	797.744292307907	2
0	2481	799.656784706457	1
0	2483	799.656784706457	2
0	2487	801.619801232545	1
0	2489	801.619801232545	2
0	2495	804.264147474103	1
0	2497	804.264147474103	2
0	2501	804.869751154034	1
0	2503	804.869751154034	2
0	2505	805.725422554597	1
0	2507	805.725422554597	2
0	2509	805.849624018487	1
0	2511	805.849624018487	2
0	2517	809.180684779372	1
0	2519	809.180684779372	2
0	2523	812.60432507853	1
0	2525	812.60432507853	2
0	2531	814.390756066549	1
0	2533	814.390756066549	2
0	2535	815.325929649951	1
0	2537	815.325929649951	2
0	2541	817.630187891785	1
0	2543	817.630187891785	2
0	2549	829.232200958407	1
0	2551	829.232200958407	2
0	2555	831.823809490017	1
0	2557	831.823809490017	2
0	2559	831.891457325828	1
0	2561	831.891457325828	2
0	2563	832.382861998376	1
0	2565	832.382861998376	2
0	2573	836.927904564656	1
0	2575	836.927904564656	2
0	2577	840.228086870112	1
0	2579	840.228086870112	2
0	2581	840.651296686639	1
0	2583	840.651296686639	2
0	2585	841.510121142978	1
0	2587	841.510121142978	2
0	2595	843.516263584955	1
0	2597	843.516263584955	2
0	2603	846.289219030452	1
0	2605	846.289219030452	2
0	2607	846.643650083988	1
0	2609	846.643650083988	2
0	2613	847.22751969053	1
0	2615	847.22751969053	2
0	2619	847.878324473943	1
0	2621	847.878324473943	2
0	2625	850.321340655397	1
0	2627	850.321340655397	2
0	2633	856.348203983476	1
0	2635	856.348203983476	2
0	2639	859.2133245265	1
0	2641	859.2133245265	2
0	2643	860.736554892613	1
0	2645	860.736554892613	2
0	2647	861.719166040157	1
0	2649	861.719166040157	2
0	2651	862.273232943439	1
0	2653	862.273232943439	2
0	2659	864.958663328361	1
0	2661	864.958663328361	2
0	2665	865.905623160851	1
0	2667	865.905623160851	2
0	2669	866.414626098162	1
0	2671	866.414626098162	2
0	2673	867.478182342325	1
0	2675	867.478182342325	2
0	2685	869.522257594481	1
0	2687	869.522257594481	2
0	2693	875.945512923779	1
0	2695	875.945512923779	2
0	2699	879.602777404323	1
0	2701	879.602777404323	2
0	2705	883.829882089996	1
0	2707	883.829882089996	2
0	2711	893.577127256835	1
0	2713	893.577127256835	2
0	2715	894.121615579117	1
0	2717	894.121615579117	2
0	2723	897.537527821111	1
0	2725	897.537527821111	2
0	2729	902.280534713879	1
0	2731	902.280534713879	2
0	2735	904.786791448373	1
0	2737	904.786791448373	2
0	2739	905.420550000584	1
0	2741	905.420550000584	2
0	2745	905.797210481904	1
0	2747	905.797210481904	2
0	2749	908.772659336533	1
0	2751	908.772659336533	2
0	2759	913.394779094084	1
0	2761	913.394779094084	2
0	2765	920.425090857663	1
0	2767	920.425090857663	2
0	2769	921.701204821257	1
0	2771	921.701204821257	2
0	2773	922.442383175054	1
0	2775	922.442383175054	2
0	2777	923.07807144666	1
0	2779	923.07807144666	2
0	2783	924.700836070429	1
0	2785	924.700836070429	2
0	2787	924.709319102496	1
0	2789	924.709319102496	2
0	2793	926.328455737887	1
0	2795	926.328455737887	2
0	2799	927.359975891988	1
0	2801	927.359975891988	2
0	2803	927.649872096999	1
0	2805	927.649872096999	2
0	2809	928.223852917866	1
0	2811	928.223852917866	2
0	2817	928.495509169318	1
0	2819	928.495509169318	2
0	2831	938.69904297749	1
0	2833	938.69904297749	2
0	2837	940.544739359196	1
0	2839	940.544739359196	2
0	2841	940.549230083852	1
0	2843	940.549230083852	2
0	2845	940.611924822762	1
0	2847	940.611924822762	2
0	2853	942.796133865262	1
0	2855	942.796133865262	2
0	2859	945.947474782666	1
0	2861	945.947474782666	2
0	2863	946.694767128854	1
0	2865	946.694767128854	2
0	2871	949.879674242972	1
0	2873	949.879674242972	2
0	2879	954.699187871947	1
0	2881	954.699187871947	2
0	2885	957.350052017928	1
0	2887	957.350052017928	2
0	2889	959.232301121146	1
0	2891	959.232301121146	2
0	2893	959.535083227119	1
0	2895	959.535083227119	2
0	2899	961.246273193099	1
0	2901	961.246273193099	2
0	2905	964.428253551941	1
0	2907	964.428253551941	2
0	2913	966.813888972992	1
0	2915	966.813888972992	2
0	2919	967.351512321607	1
0	2921	967.351512321607	2
0	2925	968.821108078431	1
0	2927	968.821108078431	2
0	2929	969.767736545096	1
0	2931	969.767736545096	2
0	2937	971.728511387713	1
0	2939	971.728511387713	2
0	2943	971.99098345126	1
0	2945	971.99098345126	2
0	2949	973.80615855352	1
0	2951	973.80615855352	2
0	2953	973.884935069707	1
0	2955	973.884935069707	2
0	2959	975.298555047182	1
0	2961	975.298555047182	2
0	2965	978.623456874869	1
0	2967	978.623456874869	2
0	2973	979.050305851711	1
0	2975	979.050305851711	2
0	2979	979.902450912709	1
0	2981	979.902450912709	2
0	2983	980.149924322886	1
0	2985	980.149924322886	2
0	2987	980.188516042076	1
0	2989	980.188516042076	2
0	2999	985.66441674567	1
0	3001	985.66441674567	2
0	3005	987.389090381257	1
0	3007	987.389090381257	2
0	3009	988.439024543075	1
0	3011	988.439024543075	2
0	3017	991.473751662173	1
0	3019	991.473751662173	2
0	3023	992.817488640813	1
0	3025	992.817488640813	2
0	3029	995.798717060323	1
0	3031	995.798717060323	2
0	3033	996.921477231697	1
0	3035	996.921477231697	2
0	3039	997.703902879969	1
0	3041	997.703902879969	2
1	341	104.632760657768	12.389691178528
1	345	105.404388014122	10.971153338705
1	351	108.516343173205	3.883582515437
1	355	108.999985936252	3.59559792213
1	365	115.03626674567	6.519923572465
1	369	115.85142243615	6.851436499898
1	373	117.244819818836	2.208553073166
1	381	119.794794785391	3.943372349241
1	385	120.724958586036	3.4801387672
1	389	121.070262904332	1.275468118941
1	393	121.182192574535	0.457233988499
1	399	123.286302336712	2.21603943238
1	403	123.368348688437	2.186156113902
1	407	123.886059481423	0.599757144711
1	419	125.10886828244	1.740519594003
1	423	125.778359991805	1.892300510382
1	431	128.388082105079	3.279213822639
1	435	129.030625511144	3.252265519339
1	441	129.232838843655	0.844756738576
1	455	136.520667809234	7.49004229809
1	459	136.708376770449	7.475537926794
1	465	137.394657631041	0.873989821807
1	471	137.628901981738	0.920525211289
1	475	137.929503812944	0.534846181903
1	483	139.819205557459	2.190303575721
1	487	140.805485460648	2.875981647704
1	493	141.923833337155	2.104627779696
1	499	143.516342673599	2.710857212951
1	505	144.523689545371	2.599856208216
1	515	145.576704883175	2.060362209576
1	521	150.731620861589	6.207931316218
1	525	153.428970263831	7.852265380656
1	529	154.197971713249	3.46635085166
1	533	154.247002506672	0.818032242841
1	543	158.200669931845	4.002698218596
1	547	158.796828532429	4.549826025757
1	553	160.245561644866	2.044891713021
1	559	160.682630965545	1.885802433116
1	567	162.122090382867	1.876528738001
1	571	162.197336503168	1.514705537623
1	579	164.002259737683	1.880169354816
1	583	164.229070241919	2.031733738751
1	589	164.698717951987	0.696458214304
1	599	168.635616100351	4.406545858432
1	605	171.121239560691	6.422521608704
1	609	171.711691964624	3.076075864273
1	615	174.294682952918	3.173443392227
1	623	179.185776969209	7.474085004585
1	629	183.371762294483	9.077079341565
1	635	186.670125501024	7.484348531815
1	639	187.026511940584	3.654749646101
1	647	187.892316949031	1.222191448007
1	651	188.251808754214	1.22529681363
1	655	188.561794325813	0.669477376782
1	659	188.71419562291	0.462386868696
1	665	189.848761823246	1.286967497433
1	671	191.331487944509	2.617292321599
1	679	192.059522896122	2.210761072876
1	687	197.219749687411	5.888261742902
1	693	200.014966190325	7.955443294203
1	697	200.740389525332	3.520639837921
1	705	203.131087680142	3.116121489817
1	711	206.169652821938	5.429263296606
1	717	207.398404637059	4.267316956917
1	723	209.476198831277	3.306546009339
1	729	213.896332818605	6.497928181546
1	733	214.278108646886	4.801909815609
1	743	219.987127330955	6.09079451235
1	749	223.674925343724	9.396816696838
1	753	224.009771555475	4.02264422452
1	757	225.637862698048	1.962937354324
1	767	228.940565267144	4.930793711669
1	771	231.622052354347	5.984189656299
1	775	232.397173484005	3.456608216861
1	779	237.257431018769	5.635378664422
1	787	238.379796292239	5.982622808234
1	797	244.483249593908	7.225818575139
1	801	245.552642688056	7.172846395817
1	807	248.272839985793	3.789590391885
1	811	248.986706997641	3.434064309585
1	817	249.563395256504	1.290555270711
1	823	250.626497481177	1.639790483536
1	827	251.038300965517	1.474905709013
1	835	253.267436216987	2.64093873581
1	839	254.617676389479	3.579375423962
1	845	256.707006822826	3.439570605839
1	851	257.052797891321	2.435121501842
1	861	261.845528495767	5.138521672941
1	865	262.01410389319	4.961306001869
1	871	262.732956097098	0.887427601331
1	875	262.73330063184	0.71919673865
1	881	263.327633729674	0.594677632576
1	887	263.974514725304	1.241214093464
1	897	269.021126679213	5.693492949539
1	901	269.994271032431	6.019756307127
1	905	270.067983232961	1.046856553748
1	909	270.960510526624	0.966239494193
1	915	271.104723968655	1.036740735694
1	925	273.676570881273	2.716060354649
1	929	273.748549541761	2.643825573106
1	933	274.795256160665	1.118685279392
1	939	275.418219365423	1.669669823662
1	949	278.149218390615	3.35396222995
1	957	280.464080096031	5.045860730608
1	963	281.566173113625	3.41695472301
1	967	281.591330801964	1.127250705933
1	971	281.655522846474	0.089349732849
1	977	282.41155946713	0.820228665166
1	981	282.438353527638	0.782830681164
1	989	282.926810700058	0.515251232928
1	997	290.68983971043	8.251486182792
1	1003	292.550192159036	9.623381458978
1	1013	295.726111422407	5.036271711977
1	1017	297.842769352427	5.292577193391
1	1021	298.257548043189	2.531436620782
1	1029	302.388104632379	4.545335279952
1	1037	305.549279097711	7.291731054522
1	1043	307.636231634372	5.248127001993
1	1047	308.979120680303	3.429841582592
1	1051	309.552023932252	1.91579229788
1	1055	310.129700048466	1.150579368163
1	1059	310.213281925787	0.661257993535
1	1071	314.426099466546	4.29639941808
1	1075	315.553397422061	5.340115496274
1	1081	317.161100035904	2.735000569358
1	1087	319.655366912127	4.101969490066
1	1093	321.603217130713	4.442117094809
1	1097	322.151112127601	2.495745215474
1	1103	324.498118942311	2.894901811598
1	1109	325.167832270258	3.016720142657
1	1117	326.798958992148	2.300840049837
1	1125	328.983509035936	3.815676765678
1	1131	330.187261386786	3.388302394638
1	1135	334.330870393449	5.347361357513
1	1139	334.733062564046	4.54580117726