version 3
run General-31-20221103-10:28:22-6760
attr configname General
attr datetime 20221103-10:28:22
attr datetimef 20221103-102822
attr experiment General
attr inifile block.ini
attr iterationvars "$0=4, $1=10"
attr iterationvarsd 4/10
attr iterationvarsf 4,10-
attr measurement "$0=4, $1=10"
attr network Block
attr processid 6760
attr repetition 1
attr replication #1
attr resultdir results
attr runnumber 31
attr seedset 31
config network Block
config repeat 5
config sim-time-limit 1000s
config warmup-period 100s
config **.alloca.resourceModuleName "\"risorse\""
config **.dealloca.resourceModuleName "\"risorse\""
config **.is.delay exponential(3s)
config **.servente.serviceTime exponential(4s)
config **.dealloca.resourceAmount 2
config **.alloca.resourceAmount 2
config **.risorse.amount 6
config **.sorgente.numJobs (10)
config **.result-recording-modes all

vector 0 Block.servente queueLength:vector ETV
attr interpolationmode sample-hold
attr recordingmode vector
attr title "queue length"
vector 1 Block.servente queueingTime:vector ETV
attr interpolationmode none
attr recordingmode vector
attr title "queueing time at dequeue"
attr unit s
vector 2 Block.alloca queueLength:vector ETV
attr interpolationmode sample-hold
attr recordingmode vector
attr title "queue length"
vector 3 Block.alloca queueingTime:vector ETV
attr interpolationmode none
attr recordingmode vector
attr title "queueing time at dequeue"
attr unit s
vector 4 Block.risorse amount:vector ETV
attr interpolationmode sample-hold
attr recordingmode vector
attr title "available resource"
vector 5 Block.is delayedJobs:vector ETV
attr interpolationmode sample-hold
attr recordingmode vector
attr title "number of delayed jobs"
0	171	108.717276995597	1
0	173	108.717276995597	2
0	179	116.863760792255	1
0	181	116.863760792255	2
0	183	120.215721533956	1
0	185	120.215721533956	2
0	191	122.008733824238	1
0	193	122.008733824238	2
0	197	124.776245474198	1
0	199	124.776245474198	2
0	203	128.758179825981	1
0	205	128.758179825981	2
0	209	132.956890330004	1
0	211	132.956890330004	2
0	215	141.091832033782	1
0	217	141.091832033782	2
0	221	146.083254887126	1
0	223	146.083254887126	2
0	227	149.835557287689	1
0	229	149.835557287689	2
0	233	150.519439108447	1
0	235	150.519439108447	2
0	239	154.458665510408	1
0	241	154.458665510408	2
0	243	154.986167741252	1
0	245	154.986167741252	2
0	249	161.051985029007	1
0	251	161.051985029007	2
0	257	166.70803171072	1
0	259	166.70803171072	2
0	261	167.925427946285	1
0	263	167.925427946285	2
0	269	171.74851868331	1
0	271	171.74851868331	2
0	275	179.930699587957	1
0	277	179.930699587957	2
0	281	182.231555200873	1
0	283	182.231555200873	2
0	285	182.332141892497	1
0	287	182.332141892497	2
0	293	185.11189970319	1
0	295	185.11189970319	2
0	299	187.326164940932	1
0	301	187.326164940932	2
0	305	192.802107207817	1
0	307	192.802107207817	2
0	311	194.527121034143	1
0	313	194.527121034143	2
0	317	194.909841673474	1
0	319	194.909841673474	2
0	323	206.716634339332	1
0	325	206.716634339332	2
0	327	209.893578399137	1
0	329	209.893578399137	2
0	335	212.907542189409	1
0	337	212.907542189409	2
0	341	214.023587187992	1
0	343	214.023587187992	2
0	347	218.948826143652	1
0	349	218.948826143652	2
0	351	222.522620849203	1
0	353	222.522620849203	2
0	359	225.813663816329	1
0	361	225.813663816329	2
0	365	228.646551996462	1
0	367	228.646551996462	2
0	369	229.313843354109	1
0	371	229.313843354109	2
0	373	229.602011351869	1
0	375	229.602011351869	2
0	377	232.085165599275	1
0	379	232.085165599275	2
0	383	233.442709809114	1
0	385	233.442709809114	2
0	391	234.030219488247	1
0	393	234.030219488247	2
0	401	238.350093553006	1
0	403	238.350093553006	2
0	407	240.73375846848	1
0	409	240.73375846848	2
0	411	244.798286915021	1
0	413	244.798286915021	2
0	415	244.909997882944	1
0	417	244.909997882944	2
0	423	246.889688879082	1
0	425	246.889688879082	2
0	427	246.97089255768	1
0	429	246.97089255768	2
0	433	248.098505699547	1
0	435	248.098505699547	2
0	437	248.418951375303	1
0	439	248.418951375303	2
0	449	251.586221900531	1
0	451	251.586221900531	2
0	453	252.280906048344	1
0	455	252.280906048344	2
0	461	261.330750028114	1
0	463	261.330750028114	2
0	467	273.195514617539	1
0	469	273.195514617539	2
0	473	274.153952016651	1
0	475	274.153952016651	2
0	477	275.227442383407	1
0	479	275.227442383407	2
0	485	286.520835278804	1
0	487	286.520835278804	2
0	489	287.128858498752	1
0	491	287.128858498752	2
0	495	291.386772816929	1
0	497	291.386772816929	2
0	503	298.446283323253	1
0	505	298.446283323253	2
0	509	302.644758842233	1
0	511	302.644758842233	2
0	515	306.089427845304	1
0	517	306.089427845304	2
0	521	308.402244168299	1
0	523	308.402244168299	2
0	527	319.356373593816	1
0	529	319.356373593816	2
0	533	320.598718091249	1
0	535	320.598718091249	2
0	539	326.687828504286	1
0	541	326.687828504286	2
0	545	329.018676996258	1
0	547	329.018676996258	2
0	551	338.058614337759	1
0	553	338.058614337759	2
0	557	341.43475515144	1
0	559	341.43475515144	2
0	561	343.81599111722	1
0	563	343.81599111722	2
0	569	350.418301236007	1
0	571	350.418301236007	2
0	573	352.720557324603	1
0	575	352.720557324603	2
0	579	353.063673485502	1
0	581	353.063673485502	2
0	583	353.547874875154	1
0	585	353.547874875154	2
0	589	356.629284337694	1
0	591	356.629284337694	2
0	599	361.387311369486	1
0	601	361.387311369486	2
0	605	369.440909929335	1
0	607	369.440909929335	2
0	609	371.224101217141	1
0	611	371.224101217141	2
0	613	373.359563880595	1
0	615	373.359563880595	2
0	617	374.508606638004	1
0	619	374.508606638004	2
0	627	381.028899113969	1
0	629	381.028899113969	2
0	631	381.347321157687	1
0	633	381.347321157687	2
0	635	381.759503650546	1
0	637	381.759503650546	2
0	645	382.892112619711	1
0	647	382.892112619711	2
0	653	384.12362479839	1
0	655	384.12362479839	2
0	659	385.029972540924	1
0	661	385.029972540924	2
0	665	392.74483235616	1
0	667	392.74483235616	2
0	671	394.362981972231	1
0	673	394.362981972231	2
0	675	398.061775896288	1
0	677	398.061775896288	2
0	679	398.345342179844	1
0	681	398.345342179844	2
0	683	398.475050648833	1
0	685	398.475050648833	2
0	689	399.581541168896	1
0	691	399.581541168896	2
0	695	402.579574373733	1
0	697	402.579574373733	2
0	705	407.559604847292	1
0	707	407.559604847292	2
0	711	411.557704083891	1
0	713	411.557704083891	2
0	717	412.932684869203	1
0	719	412.932684869203	2
0	721	413.025028624492	1
0	723	413.025028624492	2
0	725	413.340356395611	1
0	727	413.340356395611	2
0	735	420.214048542126	1
0	737	420.214048542126	2
0	743	428.428740101652	1
0	745	428.428740101652	2
0	749	433.474964894652	1
0	751	433.474964894652	2
0	753	434.958438280772	1
0	755	434.958438280772	2
0	757	435.667659179159	1
0	759	435.667659179159	2
0	763	439.704702502448	1
0	765	439.704702502448	2
0	771	445.592302206637	1
0	773	445.592302206637	2
0	779	462.993203838181	1
0	781	462.993203838181	2
0	785	467.663685696034	1
0	787	467.663685696034	2
0	791	472.62452340195	1
0	793	472.62452340195	2
0	797	477.185785693349	1
0	799	477.185785693349	2
0	803	486.00991934624	1
0	805	486.00991934624	2
0	809	493.554969683978	1
0	811	493.554969683978	2
0	813	495.966262857857	1
0	815	495.966262857857	2
0	821	498.68151483703	1
0	823	498.68151483703	2
0	825	500.249531145424	1
0	827	500.249531145424	2
0	833	504.032910558249	1
0	835	504.032910558249	2
0	837	504.804441461225	1
0	839	504.804441461225	2
0	841	504.972461564337	1
0	843	504.972461564337	2
0	851	510.901040673421	1
0	853	510.901040673421	2
0	855	511.822990163327	1
0	857	511.822990163327	2
0	861	513.971331600243	1
0	863	513.971331600243	2
0	869	524.120952272572	1
0	871	524.120952272572	2
0	873	524.621940247329	1
0	875	524.621940247329	2
0	879	525.577958341434	1
0	881	525.577958341434	2
0	885	529.653608003007	1
0	887	529.653608003007	2
0	893	538.151820318322	1
0	895	538.151820318322	2
0	899	540.265230136976	1
0	901	540.265230136976	2
0	903	542.808500070512	1
0	905	542.808500070512	2
0	909	550.078838633926	1
0	911	550.078838633926	2
0	917	554.923655915238	1
0	919	554.923655915238	2
0	923	558.320435167782	1
0	925	558.320435167782	2
0	927	558.473368302406	1
0	929	558.473368302406	2
0	935	562.912954621867	1
0	937	562.912954621867	2
0	939	563.907303127724	1
0	941	563.907303127724	2
0	947	569.76505137147	1
0	949	569.76505137147	2
0	951	572.867075969575	1
0	953	572.867075969575	2
0	957	573.361144986923	1
0	959	573.361144986923	2
0	963	574.898952643834	1
0	965	574.898952643834	2
0	967	577.195844358373	1
0	969	577.195844358373	2
0	977	592.097630408517	1
0	979	592.097630408517	2
0	981	592.264459853908	1
0	983	592.264459853908	2
0	989	608.735278567662	1
0	991	608.735278567662	2
0	995	616.58967332213	1
0	997	616.58967332213	2
0	999	616.671534266179	1
0	1001	616.671534266179	2
0	1005	623.388822778967	1
0	1007	623.388822778967	2
0	1013	628.298282581808	1
0	1015	628.298282581808	2
0	1019	632.892826770522	1
0	1021	632.892826770522	2
0	1023	633.53799384067	1
0	1025	633.53799384067	2
0	1029	637.003197978888	1
0	1031	637.003197978888	2
0	1033	637.379065469405	1
0	1035	637.379065469405	2
0	1043	644.483616464531	1
0	1045	644.483616464531	2
0	1049	653.283636405576	1
0	1051	653.283636405576	2
0	1055	658.789350233816	1
0	1057	658.789350233816	2
0	1061	668.997876905084	1
0	1063	668.997876905084	2
0	1067	670.793656832777	1
0	1069	670.793656832777	2
0	1073	672.56783273517	1
0	1075	672.56783273517	2
0	1079	675.427736599567	1
0	1081	675.427736599567	2
0	1085	678.274506590543	1
0	1087	678.274506590543	2
0	1091	679.803582981161	1
0	1093	679.803582981161	2
0	1095	680.221710926733	1
0	1097	680.221710926733	2
0	1101	684.188148608312	1
0	1103	684.188148608312	2
0	1105	684.58980018304	1
0	1107	684.58980018304	2
0	1115	693.563906792831	1
0	1117	693.563906792831	2
0	1121	698.747999616306	1
0	1123	698.747999616306	2
0	1125	701.628714792224	1
0	1127	701.628714792224	2
0	1133	706.1752609076	1
0	1135	706.1752609076	2
0	1139	709.207506830538	1
0	1141	709.207506830538	2
0	1145	716.672109528438	1
0	1147	716.672109528438	2
0	1149	716.843073887214	1
0	1151	716.843073887214	2
0	1157	728.163710090698	1
0	1159	728.163710090698	2
0	1163	735.041662088341	1
0	1165	735.041662088341	2
0	1169	735.698765457704	1
0	1171	735.698765457704	2
0	1173	739.829017240509	1
0	1175	739.829017240509	2
0	1181	746.492535938348	1
0	1183	746.492535938348	2
0	1187	759.454754446278	1
0	1189	759.454754446278	2
0	1191	762.001176034217	1
0	1193	762.001176034217	2
0	1199	768.630825053086	1
0	1201	768.630825053086	2
0	1203	768.715188359623	1
0	1205	768.715188359623	2
0	1207	769.881718063059	1
0	1209	769.881718063059	2
0	1217	771.652737574331	1
0	1219	771.652737574331	2
0	1221	775.764878628983	1
0	1223	775.764878628983	2
0	1227	780.5883448385	1
0	1229	780.5883448385	2
0	1235	783.728308576091	1
0	1237	783.728308576091	2
0	1241	794.47275477932	1
0	1243	794.47275477932	2
0	1247	797.739051945853	1
0	1249	797.739051945853	2
0	1251	807.183233341599	1
0	1253	807.183233341599	2
0	1257	808.526311505364	1
0	1259	808.526311505364	2
0	1261	808.617230756734	1
0	1263	808.617230756734	2
0	1269	809.603808205486	1
0	1271	809.603808205486	2
0	1277	811.008761704194	1
0	1279	811.008761704194	2
0	1281	811.036820044987	1
0	1283	811.036820044987	2
0	1289	814.61953174387	1
0	1291	814.61953174387	2
0	1293	820.613119265963	1
0	1295	820.613119265963	2
0	1297	822.379112052653	1
0	1299	822.379112052653	2
0	1305	829.324719798344	1
0	1307	829.324719798344	2
0	1311	832.226117071334	1
0	1313	832.226117071334	2
0	1315	832.394479686299	1
0	1317	832.394479686299	2
0	1319	832.772809098567	1
0	1321	832.772809098567	2
0	1331	840.36383048957	1
0	1333	840.36383048957	2
0	1337	842.033344143378	1
0	1339	842.033344143378	2
0	1343	847.175994665066	1
0	1345	847.175994665066	2
0	1347	851.091402415538	1
0	1349	851.091402415538	2
0	1353	853.555317478214	1
0	1355	853.555317478214	2
0	1359	855.325795741713	1
0	1361	855.325795741713	2
0	1365	855.992258208118	1
0	1367	855.992258208118	2
0	1371	856.772232630014	1
0	1373	856.772232630014	2
0	1379	865.8205431122	1
0	1381	865.8205431122	2
0	1385	866.526388922305	1
0	1387	866.526388922305	2
0	1389	872.469222209259	1
0	1391	872.469222209259	2
0	1397	876.029210325494	1
0	1399	876.029210325494	2
0	1401	876.940354081014	1
0	1403	876.940354081014	2
0	1407	880.095024245297	1
0	1409	880.095024245297	2
0	1415	883.765195085821	1
0	1417	883.765195085821	2
0	1421	891.412438248917	1
0	1423	891.412438248917	2
0	1427	897.974349547358	1
0	1429	897.974349547358	2
0	1433	912.959304738821	1
0	1435	912.959304738821	2
0	1439	917.499709211556	1
0	1441	917.499709211556	2
0	1445	921.378939852705	1
0	1447	921.378939852705	2
0	1449	926.078086409956	1
0	1451	926.078086409956	2
0	1457	931.201931150686	1
0	1459	931.201931150686	2
0	1463	933.9820402413	1
0	1465	933.9820402413	2
0	1469	937.29307334155	1
0	1471	937.29307334155	2
0	1475	943.555352960496	1
0	1477	943.555352960496	2
0	1479	947.859799525924	1
0	1481	947.859799525924	2
0	1485	950.789961950549	1
0	1487	950.789961950549	2
0	1489	951.060058426687	1
0	1491	951.060058426687	2
0	1495	951.461354225455	1
0	1497	951.461354225455	2
0	1499	951.468982440114	1
0	1501	951.468982440114	2
0	1509	954.219094305945	1
0	1511	954.219094305945	2
0	1517	962.259416359504	1
0	1519	962.259416359504	2
0	1523	967.611393950792	1
0	1525	967.611393950792	2
0	1529	969.108360276316	1
0	1531	969.108360276316	2
0	1533	969.119245034801	1
0	1535	969.119245034801	2
0	1537	969.285560019319	1
0	1539	969.285560019319	2
0	1547	975.202711539671	1
0	1549	975.202711539671	2
0	1553	978.292501546224	1
0	1555	978.292501546224	2
0	1557	980.831213912041	1
0	1559	980.831213912041	2
0	1563	981.668602701028	1
0	1565	981.668602701028	2
0	1571	992.358106104467	1
0	1573	992.358106104467	2
0	1575	992.785862427557	1
0	1577	992.785862427557	2
0	1581	995.338330278204	1
0	1583	995.338330278204	2
0	1587	997.8584497353	1
0	1589	997.8584497353	2
1	171	108.717276995597	9.618766015909
1	179	116.863760792255	17.644999697118
1	183	120.215721533956	11.498444538359
1	191	122.008733824238	5.144973031983
1	197	124.776245474198	4.560523940242
1	203	128.758179825981	6.749446001743
1	209	132.956890330004	8.180644855806
1	215	141.091832033782	12.333652207801
1	221	146.083254887126	13.126364557122
1	227	149.835557287689	8.743725253907
1	233	150.519439108447	4.436184221321
1	239	154.458665510408	4.623108222719
1	243	154.986167741252	4.466728632805
1	249	161.051985029007	6.593319518599
1	257	166.70803171072	11.721863969468
1	261	167.925427946285	6.873442917278
1	269	171.74851868331	5.04048697259
1	275	179.930699587957	12.005271641672
1	281	182.231555200873	10.483036517563
1	285	182.332141892497	2.40144230454
1	293	185.11189970319	2.880344502317
1	299	187.326164940932	4.994023048435
1	305	192.802107207817	7.690207504627
1	311	194.527121034143	7.200956093211
1	317	194.909841673474	2.107734465657
1	323	206.716634339332	12.189513305189
1	327	209.893578399137	14.983736725663
1	335	212.907542189409	6.190907850077
1	341	214.023587187992	4.130008788855
1	347	218.948826143652	6.041283954243
1	351	222.522620849203	8.499033661211
1	359	225.813663816329	6.864837672677
1	365	228.646551996462	6.123931147259
1	369	229.313843354109	3.50017953778
1	373	229.602011351869	0.955459355407
1	377	232.085165599275	2.771322245166
1	383	233.442709809114	3.840698457245
1	391	234.030219488247	1.945053888972
1	401	238.350093553006	4.907383743892
1	407	240.73375846848	6.703538980233
1	411	244.798286915021	6.448193362015
1	415	244.909997882944	4.176239414464
1	423	246.889688879082	2.091401964061
1	427	246.97089255768	2.060894674736
1	433	248.098505699547	1.208816820465
1	437	248.418951375303	1.448058817623
1	449	251.586221900531	3.487716200984
1	453	252.280906048344	3.861954673041
1	461	261.330750028114	9.744528127583
1	467	273.195514617539	20.914608569195
1	473	274.153952016651	12.823201988537
1	477	275.227442383407	2.031927765868
1	485	286.520835278804	12.366883262153
1	489	287.128858498752	11.901416115345
1	495	291.386772816929	4.865937538125
1	503	298.446283323253	11.317424824501
1	509	302.644758842233	11.257986025304
1	515	306.089427845304	7.643144522051
1	521	308.402244168299	5.757485326066
1	527	319.356373593816	13.266945748512
1	533	320.598718091249	12.19647392295
1	539	326.687828504286	7.33145491047
1	545	329.018676996258	8.419958905009
1	551	338.058614337759	11.370785833473
1	557	341.43475515144	12.416078155182
1	561	343.81599111722	5.757376779461
1	569	350.418301236007	8.983546084567
1	573	352.720557324603	8.904566207383
1	579	353.063673485502	2.645372249495
1	583	353.547874875154	0.827317550551
1	589	356.629284337694	3.565610852192
1	599	361.387311369486	7.839436494332
1	605	369.440909929335	12.811625591641
1	609	371.224101217141	9.836789847655
1	613	373.359563880595	3.91865395126
1	617	374.508606638004	3.284505420863
1	627	381.028899113969	7.669335233374
1	631	381.347321157687	6.838714519683
1	635	381.759503650546	0.730604536577
1	645	382.892112619711	1.544791462024
1	653	384.12362479839	2.364121147844
1	659	385.029972540924	2.137859921213
1	665	392.74483235616	8.62120755777
1	671	394.362981972231	9.333009431307
1	675	398.061775896288	5.316943540128
1	679	398.345342179844	3.982360207613
1	683	398.475050648833	0.413274752545
1	689	399.581541168896	1.236198989052
1	695	402.579574373733	4.1045237249
1	705	407.559604847292	7.978063678396
1	711	411.557704083891	8.978129710158
1	717	412.932684869203	5.373080021911
1	721	413.025028624492	1.467324540601
1	725	413.340356395611	0.407671526408
1	735	420.214048542126	7.189019917634
1	743	428.428740101652	15.088383706041
1	749	433.474964894652	13.260916352526
1	753	434.958438280772	6.52969817912
1	757	435.667659179159	2.192694284507
1	763	439.704702502448	4.746264221676
1	771	445.592302206637	9.924643027478
1	779	462.993203838181	23.288501335733
1	785	467.663685696034	22.071383489397
1	791	472.62452340195	9.631319563769
1	797	477.185785693349	9.522099997315
1	803	486.00991934624	13.38539594429
1	809	493.554969683978	16.369183990629
1	813	495.966262857857	9.956343511617
1	821	498.68151483703	5.126545153052
1	825	500.249531145424	4.283268287567
1	833	504.032910558249	5.351395721219
1	837	504.804441461225	4.554910315801
1	841	504.972461564337	0.939551006088
1	851	510.901040673421	6.096599212196
1	855	511.822990163327	6.85052859899
1	861	513.971331600243	3.070290926822
1	869	524.120952272572	12.297962109245
1	873	524.621940247329	10.650608647086
1	879	525.577958341434	1.457006068862
1	885	529.653608003007	5.031667755678
1	893	538.151820318322	12.573861976888
1	899	540.265230136976	10.611622133969
1	903	542.808500070512	4.65667975219
1	909	550.078838633926	9.81360849695
1	917	554.923655915238	12.115155844726
1	923	558.320435167782	8.241596533856
1	927	558.473368302406	3.549712387168
1	935	562.912954621867	4.592519454085
1	939	563.907303127724	5.433934825318
1	947	569.76505137147	6.852096749603
1	951	572.867075969575	8.959772841851
1	957	573.361144986923	3.596093615453
1	963	574.898952643834	2.031876674259
1	967	577.195844358373	3.83469937145
1	977	592.097630408517	17.198677764683
1	981	592.264459853908	15.068615495535
1	989	608.735278567662	16.637648159145
1	995	616.58967332213	24.325213468222
1	999	616.671534266179	7.936255698517
1	1005	623.388822778967	6.799149456837
1	1013	628.298282581808	11.626748315629
1	1019	632.892826770522	9.504003991555
1	1023	633.53799384067	5.239711258862
1	1029	637.003197978888	4.110371208366
1	1033	637.379065469405	3.841071628735
1	1043	644.483616464531	7.480418485643
1	1049	653.283636405576	15.904570936171
1	1055	658.789350233816	14.305733769285
1	1061	668.997876905084	15.714240499508
1	1067	670.793656832777	12.004306598961
1	1073	672.56783273517	3.569955830086
1	1079	675.427736599567	4.63407976679
1	1085	678.274506590543	5.706673855373
1	1091	679.803582981161	4.375846381594
1	1095	680.221710926733	1.94720433619
1	1101	684.188148608312	4.384565627151
1	1105	684.58980018304	4.368089256307
1	1115	693.563906792831	9.375758184519
1	1121	698.747999616306	14.158199433266
1	1125	701.628714792224	8.064807999393
1	1133	706.1752609076	7.427261291294
1	1139	709.207506830538	7.578792038314
1	1145	716.672109528438	10.496848620838
1	1149	716.843073887214	7.635567056676
1	1157	728.163710090698	11.49160056226
1	1163	735.041662088341	18.198588201127
1	1169	735.698765457704	7.535055367006
1	1173	739.829017240509	4.787355152168
1	1181	746.492535938348	10.793770480644
1	1187	759.454754446278	19.625737205769
1	1191	762.001176034217	15.508640095869
1	1199	768.630825053086	9.176070606808
1	1203	768.715188359623	6.714012325406
1	1207	769.881718063059	1.250893009973
1	1217	771.652737574331	2.937549214708
1	1221	775.764878628983	5.883160565924
1	1227	780.5883448385	8.935607264169
1	1235	783.728308576091	7.963429947108
1	1241	794.47275477932	13.88440994082
1	1247	797.739051945853	14.010743369762
1	1251	807.183233341599	12.710478562279
1	1257	808.526311505364	10.787259559511
1	1261	808.617230756734	1.433997415135
1	1269	809.603808205486	1.077496700122
1	1277	811.008761704194	2.39153094746
1	1281	811.036820044987	1.433011839501
1	1289	814.61953174387	3.610770039676
1	1293	820.613119265963	9.576299220976
1	1297	822.379112052653	7.759580308783
1	1305	829.324719798344	8.711600532381
1	1311	832.226117071334	9.847005018681
1	1315	832.394479686299	3.069759887955
1	1319	832.772809098567	0.546692027233
1	1331	840.36383048957	7.969350803271
1	1337	842.033344143378	9.260535044811
1	1343	847.175994665066	6.812164175496
1	1347	851.091402415538	9.05805827216
1	1353	853.555317478214	6.379322813148
1	1359	855.325795741713	4.234393326175
1	1365	855.992258208118	2.436940729904
1	1371	856.772232630014	1.446436888301
1	1379	865.8205431122	9.828284904082
1	1385	866.526388922305	9.754156292291
1	1389	872.469222209259	6.648679097059
1	1397	876.029210325494	9.502821403189
1	1401	876.940354081014	4.471131871755
1	1407	880.095024245297	4.065813919803
1	1415	883.765195085821	6.824841004807
1	1421	891.412438248917	11.31741400362
1	1427	897.974349547358	14.209154461537
1	1433	912.959304738821	21.546866489904
1	1439	917.499709211556	19.525359664198
1	1445	921.378939852705	8.419635113884
1	1449	926.078086409956	8.5783771984
1	1457	931.201931150686	9.822991297981
1	1463	933.9820402413	7.903953831344
1	1469	937.29307334155	6.091142190864
1	1475	943.555352960496	9.573312719196
1	1479	947.859799525924	10.566726184374
1	1485	950.789961950549	7.234608990053
1	1489	951.060058426687	3.200258900763
1	1495	951.461354225455	0.671392274906
1	1499	951.468982440114	0.408924013427
1	1509	954.219094305945	2.75774008049
1	1517	962.259416359504	10.79043391939
1	1523	967.611393950792	13.392299644847
1	1529	969.108360276316	6.848943916812
1	1533	969.119245034801	1.507851084009
1	1537	969.285560019319	0.177199743003
1	1547	975.202711539671	6.08346650487
1	1553	978.292501546224	9.006941526905
1	1557	980.831213912041	5.62850237237
1	1563	981.668602701028	3.376101154804
1	1571	992.358106104467	11.526892192426
1	1575	992.785862427557	11.117259726529
1	1581	995.338330278204	2.980224173737
1	1587	997.8584497353	5.072587307743
2	172	108.717276995597	5
2	176	109.549570063745	6
2	178	110.102431149318	7
2	180	116.863760792255	6
2	184	120.215721533956	5
2	188	120.381758032343	6
2	190	121.668931273277	7
2	192	122.008733824238	6
2	196	123.865316565679	7
2	198	124.776245474198	6
2	202	128.150113298015	7
2	204	128.758179825981	6
2	208	129.027069835102	7
2	210	132.956890330004	6
2	214	133.756674836794	7
2	216	141.091832033782	6
2	220	143.309147040297	7
2	222	146.083254887126	6
2	226	146.298118886456	7
2	228	149.835557287689	6
2	232	150.119269743918	7
2	234	150.519439108447	6
2	238	150.782550600653	7
2	240	154.458665510408	6
2	244	154.986167741252	5
2	248	155.628033846098	6
2	250	161.051985029007	5
2	254	162.240270048676	6
2	256	166.403180637688	7
2	258	166.70803171072	6
2	262	167.925427946285	5
2	266	169.825842013866	6
2	268	170.867878152349	7
2	270	171.74851868331	6
2	274	177.808062777396	7
2	276	179.930699587957	6
2	280	180.913246194449	7
2	282	182.231555200873	6
2	286	182.332141892497	5
2	290	182.487039883121	6
2	292	182.816916945504	7
2	294	185.11189970319	6
2	298	187.160109639709	7
2	300	187.326164940932	6
2	304	188.412140384012	7
2	306	192.802107207817	6
2	310	193.87971393871	7
2	312	194.527121034143	6
2	316	194.549364037514	7
2	318	194.909841673474	6
2	322	197.508512701356	7
2	324	206.716634339332	6
2	328	209.893578399137	5
2	332	210.517564517773	6
2	334	211.462594320038	7
2	336	212.907542189409	6
2	340	213.441207499366	7
2	342	214.023587187992	6
2	346	214.731919026922	7
2	348	218.948826143652	6
2	352	222.522620849203	5
2	356	223.231713460123	6
2	358	223.851131970809	7
2	360	225.813663816329	6
2	364	227.282085133027	7
2	366	228.646551996462	6
2	370	229.313843354109	5
2	374	229.602011351869	4
2	378	232.085165599275	3
2	382	232.852891189813	4
2	384	233.442709809114	3
2	388	233.604848910522	4
2	390	233.756395549187	5
2	392	234.030219488247	4
2	396	235.07730445042	5
2	398	235.37592491264	6
2	400	236.449676538883	7
2	402	238.350093553006	6
2	406	240.229268665085	7
2	408	240.73375846848	6
2	412	244.798286915021	5
2	416	244.909997882944	4
2	420	245.14078517208	5
2	422	246.6659113978	6
2	424	246.889688879082	5
2	428	246.97089255768	4
2	432	248.049585009951	5
2	434	248.098505699547	4
2	438	248.418951375303	3
2	442	248.607071422475	4
2	444	250.005564164256	5
2	446	251.346800252948	6
2	448	251.414002773246	7
2	450	251.586221900531	6
2	454	252.280906048344	5
2	458	253.589670738982	6
2	460	253.758087209996	7
2	462	261.330750028114	6
2	466	261.460203726625	7
2	468	273.195514617539	6
2	472	273.308377382966	7
2	474	274.153952016651	6
2	478	275.227442383407	5
2	482	275.823646130031	6
2	484	278.699834833045	7
2	486	286.520835278804	6
2	490	287.128858498752	5
2	494	288.067852835292	6
2	496	291.386772816929	5
2	500	292.36724758158	6
2	502	293.12108024015	7
2	504	298.446283323253	6
2	508	300.792322108959	7
2	510	302.644758842233	6
2	514	302.691005013364	7
2	516	306.089427845304	6
2	520	307.787277574719	7
2	522	308.402244168299	6
2	526	310.273812732069	7
2	528	319.356373593816	6
2	532	320.507827268836	7
2	534	320.598718091249	6
2	538	323.492262983541	7
2	540	326.687828504286	6
2	544	327.475832127767	7
2	546	329.018676996258	6
2	550	329.512290239074	7
2	552	338.058614337759	6
2	556	339.468165568085	7
2	558	341.43475515144	6
2	562	343.81599111722	5
2	566	344.446729199899	6
2	568	345.155123953692	7
2	570	350.418301236007	6
2	574	352.720557324603	5
2	578	352.82718886407	6
2	580	353.063673485502	5
2	584	353.547874875154	4
2	588	356.503570106338	5
2	590	356.629284337694	4
2	594	357.29386922769	5
2	596	360.590934978517	6
2	598	361.057837939772	7
2	600	361.387311369486	6
2	604	362.703271421108	7
2	606	369.440909929335	6
2	610	371.224101217141	5
2	614	373.359563880595	4
2	618	374.508606638004	3
2	622	375.756387182013	4
2	624	377.130350275861	5
2	626	378.345291053213	6
2	628	381.028899113969	5
2	632	381.347321157687	4
2	636	381.759503650546	3
2	640	382.007777128824	4
2	642	382.322646175749	5
2	644	382.564463540545	6
2	646	382.892112619711	5
2	650	382.978932027633	6
2	652	383.935886808587	7
2	654	384.12362479839	6
2	658	384.313695997153	7
2	660	385.029972540924	6
2	664	386.134234916199	7
2	666	392.74483235616	6
2	670	393.287465566344	7
2	672	394.362981972231	6
2	676	398.061775896288	5
2	680	398.345342179844	4
2	684	398.475050648833	3
2	688	399.40553870297	4
2	690	399.581541168896	3
2	694	401.448656757371	4
2	696	402.579574373733	3
2	700	404.478773183045	4
2	702	404.749186474959	5
2	704	405.502808874101	6
2	706	407.559604847292	5
2	710	408.414911211135	6
2	712	411.557704083891	5
2	716	412.671365082141	6
2	718	412.932684869203	5
2	722	413.025028624492	4
2	726	413.340356395611	3
2	730	413.840585866734	4
2	732	414.850005942754	5
2	734	415.075027036606	6
2	736	420.214048542126	5
2	740	420.387183280219	6
2	742	422.819502197399	7
2	744	428.428740101652	6
2	748	429.553923323023	7
2	750	433.474964894652	6
2	754	434.958438280772	5
2	758	435.667659179159	4
2	762	436.150144333048	5
2	764	439.704702502448	4
2	768	440.642952309026	5
2	770	443.63377794912	6
2	772	445.592302206637	5
2	776	446.70050729399	6
2	778	447.425170066966	7
2	780	462.993203838181	6
2	784	463.122204423571	7
2	786	467.663685696034	6
2	790	468.172134878521	7
2	792	472.62452340195	6
2	796	473.356109509312	7
2	798	477.185785693349	6
2	802	482.355427014478	7
2	804	486.00991934624	6
2	808	486.116144083932	7
2	810	493.554969683978	6
2	814	495.966262857857	5
2	818	497.254812822472	6
2	820	497.957926910868	7
2	822	498.68151483703	6
2	826	500.249531145424	5
2	830	501.05914586841	6
2	832	501.7510427266	7
2	834	504.032910558249	6
2	838	504.804441461225	5
2	842	504.972461564337	4
2	846	505.753002656825	5
2	848	509.385184755776	6
2	850	510.726757188919	7
2	852	510.901040673421	6
2	856	511.822990163327	5
2	860	512.670458278416	6
2	862	513.971331600243	5
2	866	514.120898737395	6
2	868	518.598456618904	7
2	870	524.120952272572	6
2	874	524.621940247329	5
2	878	524.783491957095	6
2	880	525.577958341434	5
2	884	528.738143861686	6
2	886	529.653608003007	5
2	890	529.655020117411	6
2	892	535.747777052547	7
2	894	538.151820318322	6
2	898	538.611056900656	7
2	900	540.265230136976	6
2	904	542.808500070512	5
2	908	543.659158836705	6
2	910	550.078838633926	5
2	914	551.421017464751	6
2	916	554.090581032382	7
2	918	554.923655915238	6
2	922	557.263908115368	7
2	924	558.320435167782	6
2	928	558.473368302406	5
2	932	558.677547572732	6
2	934	560.204908692367	7
2	936	562.912954621867	6
2	940	563.907303127724	5
2	944	564.351030853653	6
2	946	566.717698153579	7
2	948	569.76505137147	6
2	952	572.867075969575	5
2	956	573.005064655926	6
2	958	573.361144986923	5
2	962	573.767703528526	6
2	964	574.898952643834	5
2	968	577.195844358373	4
2	972	578.647568136411	5
2	974	579.068688121977	6
2	976	579.64839522305	7
2	978	592.097630408517	6
2	982	592.264459853908	5
2	986	597.029647997782	6
2	988	600.830552215224	7
2	990	608.735278567662	6
2	994	609.657895754061	7
2	996	616.58967332213	6
2	1000	616.671534266179	5
2	1004	618.062471758983	6
2	1006	623.388822778967	5
2	1010	623.683942116085	6
2	1012	624.190259429961	7
2	1014	628.298282581808	6
2	1018	628.934143588278	7
2	1020	632.892826770522	6
2	1024	633.53799384067	5
2	1028	633.787662466895	6
2	1030	637.003197978888	5
2	1034	637.379065469405	4