version 3
run General-12-20221103-09:44:57-15908
attr configname General
attr datetime 20221103-09:44:57
attr datetimef 20221103-094457
attr experiment General
attr inifile simu_1.ini
attr iterationvars ""
attr iterationvarsd ""
attr iterationvarsf ""
attr measurement ""
attr network Rete
attr processid 15908
attr repetition 12
attr replication #12
attr resultdir results
attr runnumber 12
attr seedset 12
config network Rete
config record-eventlog true
config repeat 30
config sim-time-limit 1000s
config simtime-resolution ps
config **.Servente.serviceTime exponential(1s)
config **.Arrivi.interArrivalTime exponential(2s)

vector 0 Rete.Servente queueLength:vector ETV
attr interpolationmode sample-hold
attr recordingmode vector
attr title "queue length"
vector 1 Rete.Pozzo lifeTime:vector ETV
attr interpolationmode none
attr recordingmode vector
attr title "lifetime of arrived jobs"
attr unit s
0	0	0	0
0	4	1.516838713583	1
0	5	1.682121631189	0
0	12	5.830881290106	1
0	13	6.41309192431	0
0	20	9.265744699754	1
0	22	9.334853405396	2
0	23	10.912894412009	1
0	25	11.263071697941	0
0	32	14.126630677756	1
0	34	16.715550471769	2
0	36	17.010716813478	3
0	37	17.099749585547	2
0	39	17.433584988761	1
0	42	17.94380632566	2
0	43	18.56058929055	1
0	46	19.807037337486	2
0	47	22.6739427164	1
0	49	23.330816230946	0
0	60	30.874158845673	1
0	61	31.189548755163	0
0	64	31.194435019825	1
0	65	31.992594808584	0
0	80	45.801683789089	1
0	81	46.030185595435	0
0	108	61.197414296377	1
0	109	62.438198907247	0
0	116	63.494154918946	1
0	118	63.602964923062	2
0	119	64.503465581855	1
0	121	64.683032567117	0
0	132	70.127979451333	1
0	134	70.618864214592	2
0	136	72.578295210989	3
0	137	73.871041453283	2
0	139	76.873063955773	1
0	141	77.062823732191	0
0	148	81.45682075809	1
0	149	82.940527864531	0
0	152	83.033775331347	1
0	153	83.462482360417	0
0	164	89.119329537472	1
0	165	91.329825878376	0
0	172	94.972362120941	1
0	174	95.697847032681	2
0	176	96.784717775181	3
0	177	97.632840688703	2
0	179	98.184579362265	1
0	182	99.460207871998	2
0	184	100.704276786828	3
0	186	100.745850612255	4
0	187	100.82847935232	3
0	190	101.681776100905	4
0	192	102.934653492473	5
0	193	103.579726210787	4
0	195	103.615527773674	3
0	197	103.780781454611	2
0	199	103.868818086737	1
0	201	104.175211062604	0
0	204	104.62608895171	1
0	205	105.493924149981	0
0	216	110.646499087728	1
0	217	110.974207500043	0
0	240	119.31168804729	1
0	241	120.061648565575	0
0	244	121.005799956081	1
0	246	121.619087028025	2
0	247	121.688826162056	1
0	250	121.860264832683	2
0	252	122.509281208774	3
0	253	122.871453281406	2
0	255	123.897776789301	1
0	257	124.74966922046	0
0	272	131.837487516526	1
0	274	133.332008157893	2
0	275	133.335719700227	1
0	277	134.373442211091	0
0	280	135.193688744024	1
0	281	135.298157335205	0
0	284	135.724795962473	1
0	286	135.850962821745	2
0	287	135.884913874965	1
0	289	136.78101845592	0
0	292	137.158995707745	1
0	294	138.764864064295	2
0	295	138.974278614205	1
0	298	139.23251609133	2
0	299	140.858256039063	1
0	301	142.291809394348	0
0	320	153.979331647979	1
0	322	154.015610625536	2
0	323	154.716610935913	1
0	325	155.543831727852	0
0	328	157.983366662913	1
0	329	158.38491707215	0
0	332	158.842922170261	1
0	333	158.974834696789	0
0	340	161.571158648948	1
0	342	162.678821002508	2
0	343	163.490565549207	1
0	345	163.967715385959	0
0	352	164.888084570139	1
0	353	164.995849634084	0
0	360	166.886826807685	1
0	362	167.785251796645	2
0	364	168.826863471166	3
0	365	169.893679867546	2
0	368	170.039657985021	3
0	369	172.822797398579	2
0	372	174.699715091852	3
0	373	174.769041519094	2
0	376	175.327695501569	3
0	378	175.518998286861	4
0	380	175.525585048926	5
0	381	175.936771347357	4
0	384	177.904896823451	5
0	385	178.240391930849	4
0	388	180.239593444942	5
0	390	180.337083852965	6
0	392	180.348937627966	7
0	393	180.764432900143	6
0	396	181.116182720246	7
0	397	181.794245549477	6
0	399	182.280731425702	5
0	401	184.362145379397	4
0	403	185.267847108989	3
0	405	186.013561579551	2
0	408	186.042863388047	3
0	410	186.581687920396	4
0	411	186.95724164465	3
0	413	187.098683830278	2
0	415	187.473063142485	1
0	417	188.265059649035	0
0	428	194.640300543043	1
0	429	194.97476448818	0
0	448	201.175017274494	1
0	450	201.22165276682	2
0	452	201.673332995402	3
0	453	202.680948392168	2
0	455	203.22397843662	1
0	457	203.378506971067	0
0	460	203.905641557554	1
0	462	204.077528362683	2
0	463	204.422515099893	1
0	466	205.510945326738	2
0	467	205.534614416256	1
0	470	206.323373554341	2
0	471	206.875411428919	1
0	473	207.794103824657	0
0	480	209.446793778494	1
0	481	209.550634382428	0
0	500	215.628952410599	1
0	502	215.964446044267	2
0	504	216.23468229438	3
0	506	216.393456564456	4
0	507	216.910665381057	3
0	510	218.251222873388	4
0	512	218.936547001832	5
0	514	219.313495677337	6
0	515	219.466216848111	5
0	517	220.177668436546	4
0	519	221.254937973488	3
0	522	221.283327615959	4
0	524	221.423584995734	5
0	525	221.472033918081	4
0	527	221.911225821053	3
0	530	222.974737171804	4
0	531	223.523007063098	3
0	533	223.728591182718	2
0	536	223.78984399033	3
0	537	223.924005725758	2
0	539	223.932041267316	1
0	541	224.017588050815	0
0	560	233.566163191211	1
0	562	234.63334726351	2
0	563	235.375108937777	1
0	565	235.659430618882	0
0	612	263.004430259304	1
0	614	263.06402566951	2
0	615	264.376307682621	1
0	618	265.115386567013	2
0	620	265.823688638679	3
0	622	266.178528342104	4
0	623	266.836609342122	3
0	625	267.096416553462	2
0	628	267.121186620088	3
0	629	271.573005479002	2
0	632	271.752499124494	3
0	633	271.995507295352	2
0	635	272.416256105082	1
0	637	273.556855690012	0
0	660	295.520512819529	1
0	662	296.126373834297	2
0	663	298.140238066678	1
0	665	298.243363568593	0
0	676	300.283338804341	1
0	677	300.581624561347	0
0	696	307.690681610689	1
0	698	307.901162063464	2
0	699	311.058157485144	1
0	701	311.067280147562	0
0	716	326.110156148594	1
0	718	327.073153490267	2
0	719	329.069814919589	1
0	721	329.356300287696	0
0	736	338.207298377047	1
0	737	338.213526058562	0
0	744	341.447115214261	1
0	745	341.985762025307	0
0	748	342.160173841702	1
0	750	342.984798426957	2
0	752	344.104344784943	3
0	754	344.975160899547	4
0	755	346.416118677868	3
0	757	346.585330418227	2
0	760	346.962854709928	3
0	761	348.08269636508	2
0	763	348.383554843551	1
0	765	350.714919474321	0
0	772	355.833230250737	1
0	773	356.007779821534	0
0	776	356.221667932319	1
0	777	356.744471996681	0
0	780	357.133778275937	1
0	781	357.296962213079	0
0	788	362.647312854876	1
0	790	363.547654616771	2
0	791	364.866028229907	1
0	793	365.741272718196	0
0	804	381.268935273206	1
0	806	382.372423838483	2
0	808	382.677697126112	3
0	810	383.904195954291	4
0	812	383.957473357087	5
0	814	384.135343979439	6
0	815	384.825281606885	5
0	817	385.505614364422	4
0	819	386.464259718353	3
0	822	386.879675338191	4
0	823	386.991227731163	3
0	826	387.088629817558	4
0	827	387.412453015768	3
0	829	387.803363186276	2
0	831	388.511485897759	1
0	834	388.564511735566	2
0	836	389.237396682908	3
0	837	389.615927512805	2
0	839	389.901529739216	1
0	841	390.764794473412	0
0	848	393.441471162852	1
0	849	393.839834051074	0
0	912	427.331261520853	1
0	913	427.680164416661	0
0	936	442.051201142071	1
0	938	443.861322342558	2
0	939	443.937634473663	1
0	941	444.129688700929	0
0	976	457.973019900775	1
0	977	458.249738499614	0
0	988	463.039168287617	1
0	990	464.97398365546	2
0	991	465.420737446359	1
0	994	465.991822514168	2
0	996	466.389680679453	3
0	998	467.141990299147	4
0	1000	470.41655470095	5
0	1001	471.28445342061	4
0	1004	472.101165310166	5
0	1005	472.365428542542	4
0	1007	473.315884096935	3
0	1010	473.558600086429	4
0	1011	473.744874737161	3
0	1014	473.823109432206	4
0	1015	474.21297396553	3
0	1018	474.689424110363	4
0	1019	475.433624340375	3
0	1022	475.970912373525	4
0	1023	476.105613255755	3
0	1025	476.549503684251	2
0	1027	476.800434334268	1
0	1030	476.921782044295	2
0	1031	477.114948281015	1
0	1034	477.436424787689	2
0	1036	477.744658495664	3
0	1038	477.977734602936	4
0	1040	480.592147392171	5
0	1041	481.48006246568	4
0	1043	481.611323983793	3
0	1046	482.016247113172	4
0	1048	482.78691918132	5
0	1049	482.930447292753	4
0	1052	483.0988935196	5
0	1053	483.427468018522	4
0	1055	483.466147749963	3
0	1057	483.784137161231	2
0	1059	483.952569168089	1
0	1062	484.235038833954	2
0	1064	484.609262460243	3
0	1065	485.310389023904	2
0	1067	486.781423357322	1
0	1069	486.866083106912	0
0	1088	499.560002990826	1
0	1089	500.616826852637	0
0	1100	505.074100905356	1
0	1101	505.816052144164	0
0	1104	506.672213717715	1
0	1105	506.74579616451	0
0	1116	516.749380689627	1
0	1117	518.748658847062	0
0	1120	519.153368299358	1
0	1122	520.572862254544	2
0	1123	520.947391974563	1
0	1126	520.966550332636	2
0	1128	521.948281084149	3
0	1130	522.512725864786	4
0	1131	522.56603713947	3
0	1133	522.650360628202	2
0	1135	523.252080710709	1
0	1137	523.799214648765	0
0	1144	528.226870067502	1
0	1145	528.51326971779	0
0	1152	530.780603343731	1
0	1153	531.841098830712	0
0	1180	543.390756642191	1
0	1181	544.213727755371	0
0	1184	544.978821078213	1
0	1185	544.98831386252	0
0	1192	549.318336340323	1
0	1193	549.405868078407	0
0	1224	567.547277657502	1
0	1226	568.306095200585	2
0	1227	568.749316800809	1
0	1229	570.28417306653	0
0	1240	578.108689572959	1
0	1241	578.304139519395	0
0	1244	578.723874438982	1
0	1246	578.938179100709	2
0	1248	579.295924215785	3
0	1249	579.419177966097	2
0	1251	579.977022452357	1
0	1253	579.998618255856	0
0	1260	581.331158844885	1
0	1261	581.879410936087	0
0	1268	585.079442618778	1
0	1269	585.653750865552	0
0	1272	586.256362738619	1
0	1274	587.104216417188	2
0	1275	590.365534868943	1
0	1277	590.495042040891	0
0	1284	591.812326651396	1
0	1285	592.647983843749	0
0	1292	594.669242381821	1
0	1293	595.193159594299	0
0	1296	596.352567914371	1
0	1298	597.283470130114	2
0	1299	597.844245259456	1
0	1301	599.82772344621	0
0	1324	614.765901375428	1
0	1325	615.467210181605	0
0	1336	619.544932959234	1
0	1338	620.03585980491	2
0	1340	620.127316876028	3
0	1341	624.231321121754	2
0	1343	624.603615834043	1
0	1345	624.829283757135	0
0	1348	624.950259583468	1
0	1349	625.359604121543	0
0	1356	628.47878023432	1
0	1357	628.548624311363	0
0	1368	634.890701981728	1
0	1369	634.891317522691	0
0	1376	636.678262649137	1
0	1377	636.744532280874	0
0	1388	644.343111904167	1
0	1390	644.765937381997	2
0	1391	645.576675008241	1
0	1394	645.825140033539	2
0	1395	645.936427034292	1
0	1398	646.013573686245	2
0	1399	646.130585160626	1
0	1401	647.114578113204	0
0	1412	658.234123560347	1
0	1414	659.854289637134	2
0	1415	660.8400027049	1
0	1417	660.905720178393	0
0	1428	672.097760441249	1
0	1429	672.097927398145	0
0	1436	675.780860370644	1
0	1437	676.202825306547	0
0	1452	683.176613606276	1
0	1453	683.603029510508	0
0	1456	685.860764025083	1
0	1457	687.444120855933	0
0	1460	688.063942722742	1
0	1461	688.415760977552	0
0	1468	689.448825050951	1
0	1470	690.155775075122	2
0	1471	691.916573980664	1
0	1474	692.787974367042	2
0	1476	693.914211905697	3
0	1477	693.969749915837	2
0	1479	694.58504224065	1
0	1481	695.913493859635	0
0	1484	696.48682463379	1
0	1486	697.601768671238	2
0	1487	702.63096546418	1
0	1490	704.228041738893	2
0	1492	704.241123631238	3
0	1494	704.935755644441	4
0	1495	706.748406327804	3
0	1498	708.676778871391	4
0	1500	709.577121704093	5
0	1502	710.115022311067	6
0	1504	711.127649332865	7
0	1505	711.265313709465	6
0	1507	711.614105015165	5
0	1509	712.725200073838	4
0	1511	713.679182708386	3
0	1514	714.602305118112	4
0	1515	714.791591542548	3
0	1517	714.961158119342	2
0	1520	714.991017886848	3
0	1521	715.194834259603	2
0	1523	715.438548225733	1
0	1525	715.528716668769	0
0	1540	724.386811974068	1
0	1542	724.708495349652	2
0	1543	725.353683856967	1
0	1545	725.587081316877	0
0	1548	726.039695828402	1
0	1550	726.296270714679	2
0	1551	728.704626878691	1
0	1554	728.803696635151	2
0	1555	728.942418456217	1
0	1558	729.048586394687	2
0	1560	730.236500168504	3
0	1561	731.856171267204	2
0	1564	732.071007177033	3
0	1565	732.60434391758	2
0	1567	734.870952617855	1
0	1570	734.976494341008	2
0	1571	735.195043375463	1
0	1573	735.489608250736	0
0	1580	740.380940636196	1
0	1581	742.438915794056	0
0	1584	743.422660431704	1
0	1585	743.607114401855	0
0	1588	743.807968028952	1
0	1589	744.461465626572	0
0	1592	745.589157086171	1
0	1594	745.799418878347	2
0	1596	746.837909575891	3
0	1597	746.966492711859	2
0	1600	747.617125573354	3
0	1601	748.082609113008	2
0	1603	749.828357131837	1
0	1605	750.162235948176	0
0	1608	750.2994821101	1
0	1609	751.85510090984	0
0	1620	759.170587976389	1
0	1621	759.684450205959	0
0	1628	766.834581593979	1
0	1629	767.031672942549	0
0	1656	784.059385850128	1
0	1657	784.800024352509	0
0	1660	787.487310991136	1
0	1661	787.747696486234	0
0	1664	788.545269367377	1
0	1665	788.631454698743	0
0	1668	788.659879867117	1
0	1669	790.308826697524	0
0	1680	794.151903512098	1
0	1681	794.160771136555	0
0	1688	803.266592938058	1
0	1689	803.547075053102	0
0	1692	803.90998106943	1
0	1694	803.952545804102	2
0	1695	805.823326021325	1
0	1697	806.075732262673	0
0	1700	806.669175362372	1
0	1701	806.717242598614	0
0	1704	808.691331431189	1
0	1705	808.842102509524	0
0	1716	815.935941419904	1
0	1717	816.103569645043	0
0	1724	816.815762154266	1
0	1726	816.977174924744	2
0	1728	817.638605373568	3
0	1729	817.926802876487	2
0	1732	818.115132531097	3
0	1734	819.237095661635	4
0	1735	820.52109267227	3
0	1737	821.299385619946	2
0	1739	822.849694160094	1
0	1741	823.612548244164	0
0	1744	824.644452323811	1
0	1746	825.31756562288	2
0	1747	825.366493640936	1
0	1750	826.039685996834	2
0	1752	826.384943926646	3
0	1753	827.139306325373	2
0	1756	827.331933930137	3
0	1757	827.595722221873	2
0	1759	828.095369702762	1
0	1762	828.504402321496	2
0	1763	829.515936170941	1
0	1765	830.062316735687	0
0	1772	834.418651713792	1
0	1773	835.832599738556	0
0	1776	835.954100617271	1
0	1778	836.0656984852	2
0	1779	837.014795204127	1
0	1781	837.245470213472	0
0	1788	839.839138720295	1
0	1789	841.565566227687	0
0	1800	851.302078754515	1
0	1802	851.587522113538	2
0	1803	852.545568312889	1
0	1805	853.690918871307	0
0	1808	854.081158880405	1
0	1809	854.718132832728	0
0	1812	855.367025829198	1
0	1813	855.464282333248	0
0	1816	856.370112917005	1
0	1817	858.350518082647	0
0	1832	864.11246917061	1
0	1834	864.21841698303	2
0	1835	864.595672767862	1
0	1838	865.762084421154	2
0	1839	866.214336208838	1
0	1842	866.309123769993	2
0	1843	866.425359903631	1
0	1845	866.66072666714	0
0	1848	867.146781048866	1
0	1850	867.559230418498	2
0	1851	867.732664926032	1
0	1853	868.155552322873	0
0	1860	870.337042680663	1
0	1862	870.614760525599	2
0	1863	871.294216085224	1
0	1865	872.201347278229	0
0	1868	872.467994226135	1
0	1870	872.93578819056	2
0	1872	873.443770291315	3
0	1873	873.787025137965	2
0	1875	873.96322660194	1
0	1878	874.258315889289	2
0	1879	876.350689367831	1
0	1881	876.827298636931	0
0	1884	877.035448416995	1
0	1885	877.318118591512	0
0	1892	881.104468179685	1
0	1893	881.642543387746	0
0	1924	902.733536157839	1
0	1925	904.210314399853	0
0	1948	910.852131776119	1
0	1949	911.004624049498	0
0	2012	943.909634893961	1
0	2013	944.297613298012	0
0	2028	950.668291835288	1
0	2030	950.849825133278	2
0	2032	951.14455488275	3
0	2033	951.83423133163	2
0	2035	952.57478865016	1
0	2037	952.796904517818	0
0	2040	953.116305497968	1
0	2042	954.739134470391	2
0	2043	955.387726129714	1
0	2046	955.429747841865	2
0	2048	958.209183930449	3
0	2049	958.56703786687	2
0	2051	959.088680862401	1
0	2053	959.648371616988	0
0	2056	961.058354938551	1
0	2057	961.472036429634	0
0	2076	970.960758129922	1
0	2077	971.126506482968	0
0	2080	971.239250777313	1
0	2082	971.52495545256	2
0	2083	971.630112645249	1
0	2086	971.632610025232	2
0	2087	975.396948936104	1
0	2090	975.9167730833	2
0	2091	976.200780597821	1
0	2093	976.813339064299	0
0	2100	979.79888883149	1
0	2101	979.940706034117	0
0	2108	982.227486018461	1
0	2109	982.514123325408	0
0	2124	994.440565183649	1
0	2125	995.426918427504	0
1	6	1.682121631189	1.347264787022
1	8	1.987716542871	0.470877829288
1	14	6.41309192431	0.763010549436
1	16	6.427774145212	0.596892855106
1	24	10.912894412009	2.510187694991
1	26	11.263071697941	1.997326998187
1	28	11.297064388292	1.962210982896
1	38	17.099749585547	3.145377515871
1	40	17.433584988761	3.306954311005
1	44	18.56058929055	1.845038818781
1	48	22.6739427164	5.663225902922
1	50	23.330816230946	5.387009905286
1	52	25.246341492769	5.439304155283
1	56	25.582163068366	0.00226179502
1	62	31.189548755163	0.736526665206
1	66	31.992594808584	1.118435962911
1	68	32.656916301744	1.462481281919
1	72	37.412100856957	1.461596312145
1	76	38.431796117148	0.175207029869
1	82	46.030185595435	1.446301089771
1	84	46.051214969111	0.249531180022
1	88	47.603242781816	0.145268776646
1	92	50.81315098594	0.123607113282
1	96	56.796109201926	0.370915256541
1	100	58.04382311665	1.113074304638
1	104	59.995590886784	0.637201313061
1	110	62.438198907247	1.693734608116
1	112	62.78010739714	1.582693100763
1	120	64.503465581855	1.320978557586
1	122	64.683032567117	1.188877648171
1	124	65.079889042176	1.476924119114
1	128	66.43590810537	0.407438350754
1	138	73.871041453283	3.819356250901
1	140	76.873063955773	6.74508450444
1	142	77.062823732191	6.443959517599
1	144	78.521584070233	5.943288859244
1	150	82.940527864531	1.743022173381
1	154	83.462482360417	2.005661602327
1	156	84.062701121163	1.028925789816
1	160	84.641063737039	0.511878883044
1	166	91.329825878376	5.326337105008
1	168	91.525310708713	2.405981171241
1	178	97.632840688703	3.286001872493
1	180	98.184579362265	3.212217241324
1	188	100.82847935232	5.130632319639
1	194	103.579726210787	6.795008435606
1	196	103.615527773674	4.155319901676
1	198	103.780781454611	3.076504667783
1	200	103.868818086737	3.122967474482
1	202	104.175211062604	2.493434961699
1	206	105.493924149981	2.559270657508
1	208	106.505075131062	1.878986179352
1	212	108.057350550043	0.028304615795
1	218	110.974207500043	0.356917915666
1	220	111.223762433034	0.577263345306
1	224	111.874187398737	0.056591506217
1	228	114.240372628929	0.740754793463
1	232	115.427188826849	0.538487466948
1	236	118.20547545235	0.049420050421
1	242	120.061648565575	0.849577664261
1	248	121.688826162056	2.377138114766
1	254	122.871453281406	1.865653325325
1	256	123.897776789301	2.278689761276
1	258	124.74966922046	2.889404387777
1	260	125.428395496929	2.919114288155
1	264	128.027936410099	0.706346057627
1	268	129.964565028785	0.618856853015
1	276	133.335719700227	2.251350974265
1	278	134.373442211091	2.535954694565
1	282	135.298157335205	1.966149177312
1	288	135.884913874965	0.691225130941
1	290	136.78101845592	1.056222493447
1	296	138.974278614205	3.12331579246
1	300	140.858256039063	3.699260331318
1	302	142.291809394348	3.526945330053
1	304	142.368118293629	3.135602202299
1	308	145.922442946475	0.904244712911
1	312	145.986626038023	0.031646581064
1	316	148.61689403214	1.09439350683
1	324	154.716610935913	1.014414987712
1	326	155.543831727852	1.564500079873
1	330	158.38491707215	4.369306446614
1	334	158.974834696789	0.991468033876
1	336	160.083368942981	1.24044677272
1	344	163.490565549207	2.581382745354
1	346	163.967715385959	2.396556737011
1	348	164.35718766289	1.678366660382
1	354	164.995849634084	0.384892649205
1	356	165.340393724439	0.4523091543
1	366	169.893679867546	3.156310114162
1	370	172.822797398579	5.935970590894
1	374	174.769041519094	6.983789722449
1	382	175.936771347357	7.109907876191
1	386	178.240391930849	8.200733945828
1	394	180.764432900143	6.064717808291
1	398	181.794245549477	6.466550047908
1	400	182.280731425702	6.761733138841
1	402	184.362145379397	8.836560330471
1	404	185.267847108989	7.362950285538
1	406	186.013561579551	5.773968134609
1	412	186.95724164465	6.620157791685
1	414	187.098683830278	6.749746202312
1	416	187.473063142485	6.356880422239
1	418	188.265059649035	2.222196260988
1	420	188.337494513011	1.755806592615
1	424	190.025482070681	1.61311582274
1	430	194.97476448818	2.424007837743
1	432	195.191273381828	0.550972838785
1	436	196.003600920629	0.236491786047
1	440	197.294028507943	0.473916523282
1	444	200.421858301176	0.515582270154
1	454	202.680948392168	2.164369561775
1	456	203.22397843662	2.048961162126
1	458	203.378506971067	2.156854204247
1	464	204.422515099893	2.749182104491
1	468	205.534614416256	1.628972858702
1	472	206.875411428919	2.797883066236
1	474	207.794103824657	2.283158497919
1	476	207.939632776642	1.616259222301
1	482	209.550634382428	0.212835331074
1	484	210.065784582855	0.618990804361
1	488	211.664216993123	1.545733171523
1	492	213.168324516206	0.292772603692
1	496	214.063536708222	0.11595580584
1	508	216.910665381057	2.668964360352
1	516	219.466216848111	3.837264437512
1	518	220.177668436546	4.213222392279
1	520	221.254937973488	5.020255679108
1	526	221.472033918081	5.078577353625
1	528	221.911225821053	3.660002947665
1	532	223.523007063098	4.586460061266
1	534	223.728591182718	4.415095505381
1	538	223.924005725758	2.640678109799
1	540	223.932041267316	2.508456271582
1	542	224.017588050815	1.042850879011
1	544	224.028081317353	0.238237327023
1	548	225.451703513781	0.909957843478
1	552	226.529380197327	0.088436225666
1	556	227.627966194216	0.379312446923
1	564	235.375108937777	3.461531317034
1	566	235.659430618882	2.093267427671
1	568	238.098797968569	3.465450705059
1	572	238.955885880514	0.186207010098
1	576	242.976794969582	0.380979195508
1	580	244.576549995644	0.276782009411
1	584	247.034651992393	0.675218801524
1	588	252.024728080094	0.785138380975
1	592	253.593218106318	0.519957844268
1	596	256.226840784692	1.356387307341
1	600	257.957993463959	1.032074857762
1	604	259.304345184165	1.076880194241
1	608	261.759482219451	0.16160604088
1	616	264.376307682621	1.372722068148
1	624	266.836609342122	3.832179082818
1	626	267.096416553462	4.032390883952
1	630	271.573005479002	6.457618911989
1	634	271.995507295352	6.171818656673
1	636	272.416256105082	6.237727762978
1	638	273.556855690012	6.435669069924
1	640	274.507876217743	2.755377093249
1	644	279.401698459497	0.963363235491
1	648	279.560560611386	0.013443379075
1	652	285.346556968386	0.854332401883
1	656	294.765333036017	1.503635045275
1	664	298.140238066678	2.993376679684
1	666	298.243363568593	2.722850749064
1	668	298.36689454381	2.240520709513
1	672	298.837461054878	0.283160951941
1	678	300.581624561347	0.542898982474
1	680	301.581382630489	1.298043826148
1	684	304.934202844613	0.10034008758
1	688	305.836535185934	0.494803355303
1	692	307.163693437483	0.388560185215
1	700	311.058157485144	3.551739945929
1	702	311.067280147562	3.376598536873
1	704	312.427586982213	4.526424918749
1	708	315.589666362134	0.729166752315
1	712	317.137587051664	0.179700949206
1	720	329.069814919589	2.983439504912
1	722	329.356300287696	3.246144139102
1	724	331.498219144258	4.425065653991
1	728	332.223175785543	0.052387155144
1	732	334.105657478389	1.4913892105
1	738	338.213526058562	0.111932226969
1	740	340.571580201037	2.36428182399
1	746	341.985762025307	0.886456454305
1	756	346.416118677868	4.969003463607
1	758	346.585330418227	4.425156576525
1	762	348.08269636508	5.097897938123
1	764	348.383554843551	4.279210058608
1	766	350.714919474321	5.739758574774
1	768	351.733556016355	4.770701306427
1	774	356.007779821534	1.753308172175
1	778	356.744471996681	0.911241745944
1	782	357.296962213079	1.07529428076
1	784	358.054121198623	0.920342922686
1	792	364.866028229907	2.91836621062
1	794	365.741272718196	3.09395986332
1	796	366.852738012701	3.30508339593
1	800	379.561279381166	1.558631413676
1	816	384.825281606885	3.99472866278
1	818	385.505614364422	4.236679091216
1	820	386.464259718353	4.09183587987
1	824	386.991227731163	4.313530605051
1	828	387.412453015768	3.508257061477
1	830	387.803363186276	3.845889829189
1	832	388.511485897759	4.37614191832
1	838	389.615927512805	2.736252174614
1	840	389.901529739216	2.812899921658
1	842	390.764794473412	2.200282737846
1	844	390.963671337504	1.726274654596
1	850	393.839834051074	0.876644785843
1	852	394.006973763296	0.565502600444
1	856	396.534931255766	1.243849361922
1	860	400.236711278019	1.95724092438
1	864	402.437913553498	1.159768923476
1	868	404.56336495773	0.30806113414
1	872	405.191889022297	0.505892322643
1	876	407.953604246893	0.719524057348
1	880	411.551774285337	0.42190584698
1	884	412.72432217979	0.788782521822
1	888	414.419237245108	1.158734136342
1	892	416.171155950721	0.356236324083
1	896	416.747275657564	0.242527493054
1	900	419.303716009866	1.552626596108
1	904	422.207366045965	1.495435087792
1	908	423.504000611885	0.042621481905
1	914	427.680164416661	1.03700564989
1	916	427.817351743061	0.486090222208
1	920	430.957856498352	0.793304593815
1	924	437.137651876836	0.34463830904
1	928	440.809902815097	1.747810246088
1	932	441.375126941767	0.102423031372
1	940	443.937634473663	2.278008652243
1	942	444.129688700929	2.078487558858
1	944	444.271350547393	0.410028204835
1	948	445.310110143647	0.611720097557
1	952	446.360899791448	0.088216983396
1	956	450.081058870273	1.347945525542
1	960	452.003283502415	0.452144568534
1	964	453.555961134365	0.40580691685
1	968	455.221575743783	0.112524631186
1	972	456.151220495061	0.205973822132
1	978	458.249738499614	0.732405400118
1	980	458.369223049277	0.396203148502
1	984	462.327793404909	0.661504315427
1	992	465.420737446359	2.680751880086
1	1002	471.28445342061	8.245285132993
1	1006	472.365428542542	7.391444887082
1	1008	473.315884096935	7.324061582767
1	1012	473.744874737161	7.355194057708
1	1016	474.21297396553	7.070983666383
1	1020	475.433624340375	5.017069639425
1	1024	476.105613255755	4.004447945589
1	1026	476.549503684251	2.990903597822
1	1028	476.800434334268	2.977324902062
1	1032	477.114948281015	2.425524170652
1	1042	481.48006246568	5.509150092155
1	1044	481.611323983793	4.689541939498
1	1050	482.930447292753	5.494022505064
1	1054	483.427468018522	5.682809522858
1	1056	483.466147749963	5.488413147027
1	1058	483.784137161231	3.19198976906
1	1060	483.952569168089	1.936322054917
1	1066	485.310389023904	2.523469842584
1	1068	486.781423357322	3.682529837722
1	1070	486.866083106912	2.631044272958
1	1072	487.139465949955	2.530203489712
1	1076	490.587281547158	1.37503830506
1	1080	492.182380155009	0.426935225405
1	1084	494.382652451495	1.082384795031
1	1090	500.616826852637	1.062918948292
1	1092	500.882063964489	1.322060973663
1	1096	502.587791064479	0.546409236642
1	1102	505.816052144164	1.128690677692
1	1106	506.74579616451	1.671695259154
1	1108	507.684027092808	1.011813375093
1	1112	514.237770337542	0.040284040016
1	1118	518.748658847062	2.358477965546
1	1124	520.947391974563	4.198011284936
1	1132	522.56603713947	3.412668840112
1	1134	522.650360628202	2.077498373658
1	1136	523.252080710709	2.285530378073
1	1138	523.799214648765	1.850933564616
1	1140	524.367127758702	1.854401893916
1	1146	528.51326971779	1.236538253408
1	1148	528.688697660705	0.461827593203
1	1154	531.841098830712	1.993277222533
1	1156	531.855058396029	1.074455052298
1	1160	532.79277425023	0.076981713479
1	1164	533.599270581174	0.471469887919
1	1168	533.938213744175	0.286833800651
1	1172	540.345659418944	0.718718026894
1	1176	541.127660726759	0.154877912752
1	1182	544.213727755371	1.026260464914
1	1186	544.98831386252	1.597557220329
1	1188	546.759765978753	1.78094490054
1	1194	549.405868078407	0.313512709031
1	1196	549.593470419373	0.27513407905
1	1200	552.43216344241	0.747461378095
1	1204	552.72980159998	0.276881162527
1	1208	554.820441926648	0.609199700401
1	1212	555.584580854941	0.123843619562
1	1216	558.366193139549	0.915807412182
1	1220	564.212550941499	1.811767679732
1	1228	568.749316800809	2.434197359493
1	1230	570.28417306653	2.736895409028
1	1232	571.155321636804	2.849226436219
1	1236	575.045769124308	0.722968050454
1	1242	578.304139519395	1.499311726933
1	1250	579.419177966097	1.310488393138
1	1252	579.977022452357	1.253148013375
1	1254	579.998618255856	1.060439155147
1	1256	580.166318420797	0.870394205012
1	1262	581.879410936087	0.836328629084
1	1264	582.590932074826	1.259773229941
1	1270	585.653750865552	0.604730739761
1	1276	590.365534868943	5.286092250165
1	1278	590.495042040891	4.238679302272
1	1280	590.659239768971	3.555023351783
1	1286	592.647983843749	0.935664062136
1	1288	593.298463010264	1.486136358868
1	1294	595.193159594299	1.763897909466
1	1300	597.844245259456	3.175002877635
1	1302	599.82772344621	3.475155531839
1	1304	599.854855239449	2.571385109335
1	1308	603.022648048424	2.209739911799
1	1312	605.242337022852	0.179483763871
1	1316	606.975976405099	0.406423978118
1	1320	609.362229833327	0.473692282226
1	1326	615.467210181605	1.705293370871
1	1328	615.687923052087	0.922021676659
1	1332	618.679816140298	0.193616363934
1	1342	624.231321121754	4.884362042546
1	1344	624.603615834043	5.058682874809
1	1346	624.829283757135	4.793423952225
1	1350	625.359604121543	5.232287245515
1	1352	625.614836116891	0.664576533423
1	1358	628.548624311363	0.315536946256
1	1360	628.662036854161	0.183256619841
1	1364	633.994705906681	1.666117615233
1	1370	634.891317522691	0.282336506408
1	1372	635.896034399135	1.005332417407
1	1378	636.744532280874	0.446971538548
1	1380	636.749406827885	0.071144178748
1	1384	639.379743246726	0.283983457397
1	1392	645.576675008241	1.77141110754
1	1396	645.936427034292	1.593315130125
1	1400	646.130585160626	1.364647778629
1	1402	647.114578113204	1.289438079665
1	1404	648.17117243105	2.157598744805
1	1408	654.438008180667	1.067566022376
1	1416	660.8400027049	2.624393174865
1	1418	660.905720178393	2.671596618046
1	1420	663.011559773418	3.157270136284
1	1424	665.774461327411	0.513371049394
1	1430	672.097927398145	0.3270463264
1	1432	672.753634290874	0.655873849625
1	1438	676.202825306547	1.413956792013
1	1440	676.913897345229	1.133036974585
1	1444	677.592736613085	0.470440826152
1	1448	680.640565703901	0.910685629265
1	1454	683.603029510508	1.027678226203
1	1458	687.444120855933	4.267507249657
1	1462	688.415760977552	2.554996952469
1	1464	688.915647382016	0.851704659274
1	1472	691.916573980664	2.730884536684
1	1478	693.969749915837	4.520924864886
1	1480	694.58504224065	4.429267165528
1	1482	695.913493859635	3.125519492593
1	1488	702.63096546418	8.716753558483
1	1496	706.748406327804	10.261581694014
1	1506	711.265313709465	13.663545038227