version 3
run General-8-20221027-10:37:26-16912
attr configname General
attr datetime 20221027-10:37:26
attr datetimef 20221027-103726
attr experiment General
attr inifile simu_1.ini
attr iterationvars ""
attr iterationvarsd ""
attr iterationvarsf ""
attr measurement ""
attr network Rete
attr processid 16912
attr repetition 8
attr replication #8
attr resultdir results
attr runnumber 8
attr seedset 8
config network Rete
config record-eventlog false
config repeat 10
config sim-time-limit 1000s
config simtime-resolution ps
config **.Servente.serviceTime exponential(1s)
config **.Arrivi.interArrivalTime exponential(2s)

vector 0 Rete.Servente queueLength:vector ETV
attr interpolationmode sample-hold
attr recordingmode vector
attr title "queue length"
vector 1 Rete.Pozzo lifeTime:vector ETV
attr interpolationmode none
attr recordingmode vector
attr title "lifetime of arrived jobs"
attr unit s
0	0	0	0
0	4	4.156263431179	1
0	6	4.703662854265	2
0	7	7.592969620674	1
0	9	8.06700854252	0
0	12	8.771751027751	1
0	13	8.823853397477	0
0	44	28.736120061816	1
0	45	29.203159669045	0
0	52	32.184873588086	1
0	53	32.400374042547	0
0	60	35.638317814272	1
0	61	36.150581521958	0
0	68	37.824593895796	1
0	69	40.152661180773	0
0	76	42.091158880436	1
0	77	42.227458882145	0
0	84	43.40402273671	1
0	86	45.661259406188	2
0	88	45.934860207586	3
0	90	46.649976652506	4
0	91	46.779953539477	3
0	93	46.98170601818	2
0	95	47.055291036055	1
0	98	47.427578498071	2
0	99	47.635517482557	1
0	102	47.936769386156	2
0	103	48.392648090782	1
0	106	48.937315418826	2
0	107	51.296784620069	1
0	109	52.017565672786	0
0	116	55.705921978006	1
0	118	55.965473412195	2
0	120	56.023779210646	3
0	122	56.832625323776	4
0	123	57.649973843102	3
0	126	57.699381705413	4
0	127	57.97080564483	3
0	130	58.658548886499	4
0	131	58.815578083967	3
0	133	59.894742826922	2
0	136	61.5477533126	3
0	138	62.210549671535	4
0	139	62.688414834683	3
0	141	62.846926377791	2
0	144	62.980962479446	3
0	146	63.22261103183	4
0	147	63.413398499284	3
0	150	63.852431855134	4
0	151	64.507864151303	3
0	153	64.573742171772	2
0	155	65.590513149546	1
0	157	66.243051802005	0
0	168	69.471553705844	1
0	169	70.762078245807	0
0	176	71.861265274109	1
0	177	72.402069264022	0
0	184	77.095260338034	1
0	186	78.782900954445	2
0	188	80.536870535929	3
0	189	81.055668606374	2
0	191	81.095358219286	1
0	194	81.142480707748	2
0	195	81.294800148121	1
0	197	81.763535802101	0
0	224	95.364647876977	1
0	225	95.511407477063	0
0	228	96.954950590732	1
0	229	98.319018989558	0
0	232	98.92533677297	1
0	234	100.310574833209	2
0	235	101.189320855779	1
0	238	101.249745482311	2
0	239	102.527215700165	1
0	242	103.06119027062	2
0	243	103.137223040946	1
0	245	104.096308476315	0
0	260	108.607219416497	1
0	261	108.650537188272	0
0	264	108.659732751962	1
0	265	109.221141529216	0
0	268	109.292374404807	1
0	269	109.785884291668	0
0	280	118.319624835542	1
0	281	118.984207084512	0
0	296	132.844956338621	1
0	298	133.094991565433	2
0	299	133.206668881869	1
0	301	134.732885712811	0
0	304	134.864238259865	1
0	306	134.930453848933	2
0	307	135.958816333313	1
0	309	136.071781329351	0
0	312	136.359531552535	1
0	314	136.904205636054	2
0	315	137.844100941091	1
0	317	138.230321837288	0
0	320	139.454985832741	1
0	321	140.242192064234	0
0	340	151.229977714596	1
0	341	151.612556190554	0
0	344	153.190423074069	1
0	345	153.321458589178	0
0	352	156.544120677746	1
0	354	157.160780284599	2
0	355	157.490865286605	1
0	357	158.057332315592	0
0	372	162.842932313659	1
0	373	163.606435662678	0
0	396	176.031815596767	1
0	398	176.241936224907	2
0	399	177.284761444485	1
0	402	177.636557445796	2
0	403	179.806737197457	1
0	405	180.160321163649	0
0	416	196.154810726617	1
0	418	197.131312199521	2
0	419	197.228576132283	1
0	421	199.658022702443	0
0	432	205.755307352283	1
0	433	206.528585800711	0
0	448	214.873022442341	1
0	449	215.138267645983	0
0	456	215.800611864662	1
0	458	218.341728644786	2
0	459	219.977597788826	1
0	461	220.78059312169	0
0	516	241.567859456278	1
0	518	242.005521697123	2
0	520	242.072357747494	3
0	521	242.923298080463	2
0	524	243.309333287653	3
0	525	243.481952666717	2
0	528	243.632703511154	3
0	529	245.584810828437	2
0	532	246.179317181058	3
0	533	246.232042595368	2
0	535	246.690229184455	1
0	537	247.251607893375	0
0	552	249.892217982443	1
0	553	250.435334283322	0
0	560	251.994647858341	1
0	562	252.102400433048	2
0	563	252.406760108476	1
0	566	252.813045707922	2
0	567	253.044455234295	1
0	569	253.300905106572	0
0	580	260.46668684793	1
0	582	260.648215872918	2
0	583	261.561628048537	1
0	585	262.117058918068	0
0	688	328.823779416824	1
0	689	329.516467170602	0
0	700	336.935563953496	1
0	701	337.031630302461	0
0	712	349.293300693491	1
0	713	350.730667606769	0
0	716	351.638914742601	1
0	718	351.769595155572	2
0	719	352.925554219264	1
0	721	353.414308489564	0
0	724	353.77015635992	1
0	726	354.2388164591	2
0	727	354.629519267629	1
0	729	356.699104742185	0
0	732	358.220860710326	1
0	733	359.669635376038	0
0	756	374.566325370749	1
0	757	375.182522903771	0
0	764	379.373978680544	1
0	766	381.171683389533	2
0	768	381.856159367167	3
0	769	381.918288502284	2
0	771	384.955136336285	1
0	774	386.096001450851	2
0	775	386.448440296513	1
0	778	386.502791808635	2
0	779	386.557826125402	1
0	781	386.592381477237	0
0	816	402.075052746324	1
0	817	403.909339173036	0
0	848	420.426089363397	1
0	849	420.449877081705	0
0	864	434.592729862562	1
0	866	434.895043099385	2
0	867	436.881727857922	1
0	869	437.250992063559	0
0	880	441.247617903599	1
0	881	442.530795132629	0
0	884	443.053641149382	1
0	886	444.252841044631	2
0	887	444.864369886879	1
0	889	445.062080568374	0
0	896	450.195605518815	1
0	897	451.429458025629	0
0	916	465.181920621092	1
0	917	465.581033082452	0
0	924	468.415525241709	1
0	926	468.424995082173	2
0	927	468.466288829235	1
0	930	469.485015500499	2
0	931	469.900966411653	1
0	933	470.414604715164	0
0	952	480.255039050743	1
0	954	480.291932241307	2
0	955	481.389444566696	1
0	958	481.693779093551	2
0	959	483.948068836931	1
0	962	484.308500908318	2
0	963	484.47139471462	1
0	965	486.177008162612	0
0	968	486.350074716434	1
0	969	486.874532373094	0
0	1024	525.154327330899	1
0	1025	526.501944380743	0
0	1040	534.570345351586	1
0	1041	534.93753189366	0
0	1052	541.436564982252	1
0	1053	541.71451190669	0
0	1068	548.237539761174	1
0	1070	549.030912409513	2
0	1072	551.03435135158	3
0	1073	552.085032613794	2
0	1075	554.739573293508	1
0	1077	555.203163688867	0
0	1084	557.258105592899	1
0	1085	557.450363929834	0
0	1088	558.010368148866	1
0	1089	558.369155337056	0
0	1096	569.056371276385	1
0	1097	569.084376993553	0
0	1108	572.046438676865	1
0	1110	573.369335248844	2
0	1111	573.473447079651	1
0	1114	573.86483780598	2
0	1116	573.993026091653	3
0	1118	574.144089116173	4
0	1119	574.539605617709	3
0	1122	575.177301878537	4
0	1123	575.673481449771	3
0	1125	576.398050385248	2
0	1127	576.554268915277	1
0	1129	577.546891891337	0
0	1156	591.22193890033	1
0	1157	593.516918132305	0
0	1176	607.811549900759	1
0	1177	608.665785494566	0
0	1224	647.769751226795	1
0	1225	648.107802851633	0
0	1232	648.631834886052	1
0	1233	649.721225020124	0
0	1244	652.211618551532	1
0	1246	652.453648912449	2
0	1247	653.667049877136	1
0	1249	654.276909532744	0
0	1256	655.911371081195	1
0	1257	656.04493663009	0
0	1280	680.365663749356	1
0	1281	680.634743267444	0
0	1284	682.660687215226	1
0	1285	683.485174452996	0
0	1288	683.70263345701	1
0	1289	684.326590681413	0
0	1292	684.490852742131	1
0	1293	684.777930675737	0
0	1320	699.513902218682	1
0	1322	700.714020476839	2
0	1324	701.518454108323	3
0	1325	702.227029945209	2
0	1328	702.256554156643	3
0	1330	704.018574198357	4
0	1331	705.474683093686	3
0	1333	705.861252297998	2
0	1335	706.070615743876	1
0	1337	707.561590589704	0
0	1352	713.503641455837	1
0	1353	716.239196792007	0
0	1376	730.857658855826	1
0	1378	731.093051608184	2
0	1379	731.286457256184	1
0	1382	731.509203068487	2
0	1384	731.621121217012	3
0	1385	731.818600008843	2
0	1387	732.978659475014	1
0	1390	734.294768503983	2
0	1392	735.614280690759	3
0	1393	736.006349197406	2
0	1396	737.74118087252	3
0	1397	737.762844151688	2
0	1399	737.791013267472	1
0	1401	738.560035852021	0
0	1408	742.223948955786	1
0	1409	743.898026929074	0
0	1420	750.186779197737	1
0	1421	751.305455278234	0
0	1428	755.646098748578	1
0	1429	755.914709857671	0
0	1440	764.479782253025	1
0	1442	764.859475141996	2
0	1443	765.573899132172	1
0	1445	767.251841645501	0
0	1452	774.579631967542	1
0	1454	774.599556998132	2
0	1456	774.837879257722	3
0	1457	775.567538334587	2
0	1460	776.705535791972	3
0	1462	776.874134112218	4
0	1464	777.661472423495	5
0	1465	779.474268253805	4
0	1467	779.670422834066	3
0	1469	781.260014741038	2
0	1472	781.860821267389	3
0	1473	782.369330269045	2
0	1475	782.375947358871	1
0	1477	783.196398473712	0
0	1496	792.313479205548	1
0	1497	792.340921248304	0
0	1504	801.672724540126	1
0	1505	803.105743373582	0
0	1512	806.21070209177	1
0	1514	806.230613255386	2
0	1515	806.358344279522	1
0	1518	807.051214827406	2
0	1519	807.518258675449	1
0	1521	807.727851532934	0
0	1528	813.309088850584	1
0	1529	813.591408559463	0
0	1536	819.38192089434	1
0	1537	819.386201402793	0
0	1548	826.91430827961	1
0	1550	827.855890811697	2
0	1551	828.915394729193	1
0	1554	829.361276842733	2
0	1556	830.387788005098	3
0	1558	830.423515503516	4
0	1560	830.612062226718	5
0	1561	831.27448220292	4
0	1564	831.579754812665	5
0	1565	832.332268808963	4
0	1568	832.422372334912	5
0	1569	833.48499089716	4
0	1572	833.652962032456	5
0	1574	834.404582045728	6
0	1575	834.683608735584	5
0	1578	834.970736300938	6
0	1579	835.725733844241	5
0	1582	836.018470577386	6
0	1583	837.134260465319	5
0	1586	837.315506496283	6
0	1587	837.699276039098	5
0	1590	837.979239240578	6
0	1592	838.973751315094	7
0	1593	839.584228044348	6
0	1595	839.643357903339	5
0	1597	841.610045069064	4
0	1599	842.301952336777	3
0	1601	844.69050661706	2
0	1603	845.231234423854	1
0	1605	845.51849091503	0
0	1620	849.865509583083	1
0	1621	849.953794932646	0
0	1644	863.653051241758	1
0	1646	863.65790256355	2
0	1647	864.674952024998	1
0	1649	865.772783132358	0
0	1656	869.799743213495	1
0	1657	872.310697409787	0
0	1676	876.081133424079	1
0	1677	876.156345418514	0
0	1684	879.431556376842	1
0	1685	881.081369170874	0
0	1688	881.308927601785	1
0	1689	881.506462200736	0
0	1700	890.628641418422	1
0	1701	890.945625607804	0
0	1708	892.5783985714	1
0	1709	893.451113547786	0
0	1712	895.484832687085	1
0	1713	897.308543999671	0
0	1728	907.295745822333	1
0	1730	907.44759975365	2
0	1731	907.796928814641	1
0	1733	907.886934969733	0
0	1736	908.420731211895	1
0	1738	909.215009072147	2
0	1740	909.956183915582	3
0	1741	910.150134131339	2
0	1743	910.465979997728	1
0	1745	910.658305781714	0
0	1764	918.350633485165	1
0	1766	918.970935113385	2
0	1768	919.184141250255	3
0	1769	919.989558411233	2
0	1771	920.021560724619	1
0	1773	920.83234989738	0
0	1796	929.610522489777	1
0	1798	930.196253184771	2
0	1799	930.61374532783	1
0	1801	932.852930495566	0
0	1804	934.004656274558	1
0	1805	935.06583167271	0
0	1808	935.883935611595	1
0	1810	936.454382180934	2
0	1811	936.615429680754	1
0	1813	937.240341911306	0
0	1828	953.471001010344	1
0	1829	954.036823276437	0
0	1836	955.71711892914	1
0	1837	957.544980986945	0
0	1840	958.637122658482	1
0	1842	958.783138264541	2
0	1843	958.851973813622	1
0	1846	959.731613927636	2
0	1847	960.853525368555	1
0	1850	961.799502159168	2
0	1851	962.063884745857	1
0	1854	962.982884954993	2
0	1855	963.108568899042	1
0	1858	963.366533190492	2
0	1860	964.510673174031	3
0	1861	964.761867379131	2
0	1864	965.209829386157	3
0	1865	965.293837143437	2
0	1867	965.312201464434	1
0	1869	966.160990333314	0
0	1884	972.225715173772	1
0	1885	973.312880344622	0
0	1892	977.827217476073	1
0	1893	978.182302377237	0
1	8	7.592969620674	3.459059519372
1	10	8.06700854252	3.910745111341
1	14	8.823853397477	4.120190543212
1	16	9.088767735321	0.31701670757
1	20	12.173874594728	0.011464267755
1	24	13.822929130581	0.562941743378
1	28	15.668411350448	0.514752257915
1	32	18.798622330469	0.739556981129
1	36	19.73798249111	0.65083853171
1	40	24.01046103501	0.810482384867
1	46	29.203159669045	0.783916918567
1	48	30.634014558755	1.897894496939
1	54	32.400374042547	1.246096243193
1	56	33.367121832609	1.182248244523
1	62	36.150581521958	0.555285779479
1	64	36.491769902514	0.853452088242
1	70	40.152661180773	3.644106474589
1	72	40.558787577594	2.734193681798
1	78	42.227458882145	0.246925438349
1	80	42.295532595827	0.204373715391
1	92	46.779953539477	4.066955660666
1	94	46.98170601818	3.57768328147
1	96	47.055291036055	1.394031629867
1	100	47.635517482557	1.700657274971
1	104	48.392648090782	1.742671438276
1	108	51.296784620069	3.869206121998
1	110	52.017565672786	4.08079628663
1	112	52.441390715176	3.50407529635
1	124	57.649973843102	4.183139138431
1	128	57.97080564483	2.264883666824
1	132	58.815578083967	2.850104671772
1	134	59.894742826922	3.870963616276
1	140	62.688414834683	5.855789510907
1	142	62.846926377791	5.147544672378
1	148	63.413398499284	4.754849612785
1	152	64.507864151303	2.960110838703
1	154	64.573742171772	2.363192500237
1	156	65.590513149546	2.6095506701
1	158	66.243051802005	3.020440770175
1	160	66.3142150232	2.461783168066
1	164	68.007338257049	0.925443682131
1	170	70.762078245807	1.58755194067
1	172	70.794609868646	1.323056162802
1	178	72.402069264022	0.607791512756
1	180	73.963538977373	2.102273703264
1	190	81.055668606374	4.473836802165
1	192	81.095358219286	4.000097881252
1	196	81.294800148121	2.511899193676
1	198	81.763535802101	1.226665266172
1	200	81.972003218116	0.829522510368
1	204	83.311515279294	0.986326064605
1	208	83.855290125378	0.242476480004
1	212	84.353123879384	0.163660881373
1	216	88.663105925217	0.768181776323
1	220	91.738486956671	0.105790382206
1	226	95.511407477063	1.31363304148
1	230	98.319018989558	2.954371112581
1	236	101.189320855779	4.234370265047
1	240	102.527215700165	3.601878927195
1	244	103.137223040946	2.826648207737
1	246	104.096308476315	2.846562994004
1	248	104.810843661197	1.749653390577
1	252	105.867070572142	0.636563810624
1	256	107.42845765238	0.008911881156
1	262	108.650537188272	0.070311318791
1	266	109.221141529216	0.613922112719
1	270	109.785884291668	1.126151539706
1	272	109.991536315748	0.699161910941
1	276	113.104631562194	0.75439580256
1	282	118.984207084512	0.914008960214
1	284	120.260479887668	1.940855052126
1	288	121.42363625164	0.365853881208
1	292	129.24785885524	0.518178363317
1	300	133.206668881869	1.730377037608
1	302	134.732885712811	1.88792937419
1	308	135.958816333313	2.86382476788
1	310	136.071781329351	1.207543069486
1	316	137.844100941091	2.913647092158
1	318	138.230321837288	1.870790284753
1	322	140.242192064234	3.33798642818
1	324	140.469606936047	1.014621103306
1	328	145.123273163093	0.354584061105
1	332	146.689011888684	0.645889654639
1	336	147.986181895173	0.680437296444
1	342	151.612556190554	0.935667573072
1	346	153.321458589178	2.091480874582
1	348	154.071649956047	0.881226881978
1	356	157.490865286605	2.800233593748
1	358	158.057332315592	1.513211637846
1	360	158.254268569687	1.093488285088
1	364	160.697887765419	0.966861691473
1	368	161.971708356785	0.826183576429
1	374	163.606435662678	1.441403816353
1	376	165.249669979045	2.406737665386
1	380	168.282208309458	0.354712874792
1	384	169.137973326922	0.148946403267
1	388	170.469867461937	1.008948688661
1	392	174.659954844075	0.008343087576
1	400	177.284761444485	1.553924047774
1	404	179.806737197457	3.77492160069
1	406	180.160321163649	3.918384938742
1	408	184.298031203544	6.661473757748
1	412	189.593139238726	0.257577949369
1	420	197.228576132283	1.89683529744
1	422	199.658022702443	3.503211975826
1	424	199.927386080236	2.796073880715
1	428	201.552252160013	1.069597205582
1	434	206.528585800711	3.779723747885
1	436	207.843745367663	2.08843801538
1	440	208.232623835406	0.100514903114
1	444	214.235993187097	0.6943601356
1	450	215.138267645983	0.62056623373
1	452	215.139011817415	0.265989375074
1	460	219.977597788826	4.504324340503
1	462	220.78059312169	4.979981257028
1	464	221.02548541001	2.683756765224
1	468	223.472801941958	0.929825672424
1	472	224.343595168615	0.638570205763
1	476	227.4556187122	0.44489575192
1	480	229.410035831603	0.753518302254
1	484	231.577334762069	0.832002682873
1	488	233.547982163707	1.793054345477
1	492	233.851270798654	0.064872788686
1	496	234.984277846113	0.93233532215
1	500	235.883843430994	0.700398902424
1	504	236.725423983693	0.174709036446
1	508	237.789713132158	0.157174971539
1	512	239.517222818534	1.015671549372
1	522	242.923298080463	2.144779481872
1	526	243.481952666717	1.914093210439
1	530	245.584810828437	3.579289131314
1	534	246.232042595368	4.159684847874
1	536	246.690229184455	3.380895896802
1	538	247.251607893375	3.618904382221
1	540	247.526900699702	1.347583518644
1	544	247.98499201793	0.049433734905
1	548	248.224734811629	0.192574071945
1	554	250.435334283322	0.813678703648
1	556	251.190538762088	1.298320779645
1	564	252.406760108476	0.785748451977
1	568	253.044455234295	1.049807375954
1	570	253.300905106572	1.198504673524
1	572	255.177873104664	2.364827396742
1	576	257.451097063065	0.626798489949
1	584	261.561628048537	1.391741972839
1	586	262.117058918068	1.650372070138
1	588	262.576078054444	1.927862181526
1	592	263.904377908421	0.195179585948
1	596	266.366366623659	0.291516754806
1	600	267.779249927816	0.270616599245
1	604	269.307203078972	0.497408637501
1	608	269.652255458933	0.007232499659
1	612	275.148130153248	0.32974212067
1	616	280.443890461402	0.770179670846
1	620	282.685061444372	0.550015799287
1	624	287.023910524563	0.758915938037
1	628	289.204588803557	1.347371215733
1	632	297.638447987433	2.676775936096
1	636	298.31082853082	0.394520791107
1	640	299.865324465126	0.31549670334
1	644	302.719251772844	0.646691004469
1	648	303.973769619539	0.940624942014
1	652	304.564025618959	0.207332247717
1	656	306.721647550529	0.028394706945
1	660	310.684585904025	0.228147988446
1	664	311.60083764876	0.281176037008
1	668	315.201505136991	0.573287301719
1	672	316.355007412884	0.996766895662
1	676	318.407790062384	0.35871074628
1	680	322.808775952397	3.709356100462
1	684	328.184164292636	2.049093472747
1	690	329.516467170602	0.969512268183
1	692	329.928786326671	1.105006909847
1	696	335.029810079712	0.186006268161
1	702	337.031630302461	1.078016292556
1	704	338.288473325951	1.352909372455
1	708	347.232878127275	0.068386680426
1	714	350.730667606769	1.492171507842
1	720	352.925554219264	3.632253525773
1	722	353.414308489564	1.775393746963
1	728	354.629519267629	2.859924112057
1	730	356.699104742185	2.928948382265
1	734	359.669635376038	5.430818916938
1	736	360.103309259741	1.882448549415
1	740	360.587418095841	0.061026616871
1	744	365.21713630006	0.372448830335
1	748	367.682724594431	0.187355369858
1	752	372.227382457554	0.468482773161
1	758	375.182522903771	0.701120937795
1	760	376.745515792597	2.179190421848
1	770	381.918288502284	3.046644546087
1	772	384.955136336285	5.581157655741
1	776	386.448440296513	5.27675690698
1	780	386.557826125402	4.701666758235
1	782	386.592381477237	0.496380026386
1	784	386.793885220171	0.291093411536
1	788	387.964633097402	0.301985162885
1	792	389.02424963733	0.017356651354
1	796	391.322248315675	0.282733823752
1	800	394.126500868006	0.488594388386
1	804	396.049770242266	0.687499268297
1	808	401.276722608214	0.361747048946
1	812	401.680295026871	0.013126839761
1	818	403.909339173036	2.094353183867
1	820	404.178651099417	2.103598353093
1	824	411.147696619326	0.247053984381
1	828	412.039591004581	0.004173894217
1	832	414.782976099224	0.301146903761
1	836	416.26102351843	0.321573282197
1	840	417.754864484423	0.851958773747
1	844	418.7686664991	0.734816596699
1	850	420.449877081705	1.605594061552
1	852	421.95650801057	1.530418647173
1	856	430.525264069698	2.660385430619
1	860	432.234827927893	0.745936176773
1	868	436.881727857922	2.732710723014
1	870	437.250992063559	2.658262200997
1	872	437.460664001638	2.565620902253
1	876	439.480310975572	1.19565791673
1	882	442.530795132629	2.464769966759
1	888	444.864369886879	3.61675198328
1	890	445.062080568374	2.008439418992
1	892	446.105172234683	1.852331190052
1	898	451.429458025629	3.219941883208
1	900	451.717162451625	1.52155693281
1	904	459.76205159985	1.195257555401
1	908	460.757756654144	0.131968960773
1	912	462.803054931264	1.086982733972
1	918	465.581033082452	1.236636578022
1	920	466.695727143928	1.513806522836
1	928	468.466288829235	0.689454785597
1	932	469.900966411653	1.485441169944
1	934	470.414604715164	1.989609632991
1	936	471.049008936368	1.563993435869
1	940	473.897473748754	0.38246431752
1	944	475.379975888968	0.048284296299
1	948	477.080016495555	1.076234077363
1	956	481.389444566696	1.408817469247
1	960	483.948068836931	3.693029786188
1	964	484.47139471462	4.179462473313
1	966	486.177008162612	4.483229069061
1	970	486.874532373094	2.566031464776
1	972	487.083147496203	0.733072779769
1	976	493.797067510998	0.441939764951
1	980	498.946722312412	1.308305522423
1	984	500.579823329584	1.388553935042
1	988	503.661800317186	0.054590611701
1	992	506.658931378913	0.558853810519
1	996	507.675747209743	0.939227811396
1	1000	510.221076405752	1.317816796377
1	1004	510.933220838629	0.509439265987
1	1008	519.048413961063	0.786192596692
1	1012	520.943292458789	0.475690898285
1	1016	523.115543281026	0.415639189238
1	1020	524.741741783215	0.394856819324
1	1026	526.501944380743	1.718283770181
1	1028	526.582466825731	1.428139494832
1	1032	532.548515538772	0.037043683998
1	1036	534.134576096909	1.155399264295
1	1042	534.93753189366	0.45097596539
1	1044	537.757134097011	3.186788745425
1	1048	540.096836486696	0.186953857511
1	1054	541.71451190669	0.530460524155
1	1056	542.222954642952	0.7863896607
1	1060	543.901148089694	0.714520888878
1	1064	547.379851916839	0.170680714691
1	1074	552.085032613794	4.055097612946
1	1076	554.739573293508	6.502033532334
1	1078	555.203163688867	6.172251279354
1	1080	556.223997191635	5.189645840055
1	1086	557.450363929834	1.010321584705
1	1090	558.369155337056	1.111049744157
1	1092	558.651804394035	0.641436245169
1	1098	569.084376993553	0.337825359834
1	1100	569.266897867093	0.210526590708
1	1104	571.381975830333	1.229358338534
1	1112	573.473447079651	1.938902279216
1	1120	574.539605617709	2.493166940844
1	1124	575.673481449771	2.304146200927
1	1126	576.398050385248	2.533212579268
1	1128	576.554268915277	2.561242823624
1	1130	577.546891891337	3.402802775164
1	1132	578.357638419708	3.180336541171
1	1136	583.421895806821	1.498765677009
1	1140	584.667066567804	0.216800486275
1	1144	586.170620465699	0.428847109668
1	1148	588.18809635495	0.251894724636
1	1152	589.542993137328	0.62909955933
1	1158	593.516918132305	2.735491715945
1	1160	594.514470925755	3.292532025425
1	1164	594.759019752152	0.117134577682
1	1168	596.212286885591	0.419725422379
1	1172	597.545802433338	1.216561051833
1	1178	608.665785494566	5.20818905417
1	1180	609.115204854221	1.303654953462
1	1184	615.71976664046	0.731794931959
1	1188	616.194563384978	0.253384040939
1	1192	620.070310919211	0.426898202958
1	1196	626.455774024097	0.142622973596
1	1200	626.982205445079	0.203870686276
1	1204	627.453952944837	0.355120888379
1	1208	634.920767960795	0.049801300877
1	1212	636.253804765619	0.325451493118
1	1216	639.420123490745	0.086767351569
1	1220	640.765962989121	0.029580028822
1	1226	648.107802851633	3.3416816268
1	1228	648.502917537712	0.733166310917
1	1234	649.721225020124	1.166374420655
1	1236	650.049333838226	1.417498952174
1	1240	651.739735850547	0.580317405608
1	1248	653.667049877136	1.710821564033
1	1250	654.276909532744	2.065290981212
1	1252	655.023515986906	2.569867074457
1	1258	656.04493663009	0.436695036069
1	1260	656.438282242933	0.526911161738
1	1264	668.633536139136	2.146209011018
1	1268	670.631403415374	0.118732932749
1	1272	673.714715898619	0.482582416357
1	1276	675.140774157178	0.041613731272
1	1282	680.634743267444	1.005600634193
1	1286	683.485174452996	3.11951070364
1	1290	684.326590681413	1.665903466187
1	1294	684.777930675737	1.075297218727
1	1296	685.153211316934	0.662358574803
1	1300	691.074266380399	1.214278744779
1	1304	691.520996967198	0.15960057596
1	1308	693.696208509056	1.276912480445
1	1312	693.891293093111	0.177874098116
1	1316	694.782534722091	0.327618856528
1	1326	702.227029945209	3.581968232981
1	1332	705.474683093686	5.960780875004
1	1334	705.861252297998	5.147231821159
1	1336	706.070615743876	4.552161635553
1	1338	707.561590589704	5.305036433061
1	1340	707.59738149004	3.578807291683
1	1344	709.076360416197	0.468500979423
1	1348	712.762856835443	1.179948587158
1	1354	716.239196792007	3.005624542368
1	1356	716.682133088127	3.17849163229
1	1360	717.808191071511	0.459850724937
1	1364	720.422992452621	0.149264909363
1	1368	722.855110728205	1.41268993017
1	1372	726.428907620551	0.631718299745
1	1380	731.286457256184	0.656962226062
1	1386	731.818600008843	0.960941153017
1	1388	732.978659475014	1.88560786683
1	1394	736.006349197406	4.497146128919
1	1398	737.762844151688	6.141722934676
1	1400	737.791013267472	3.496244763489
1	1402	738.560035852021	2.945755161262
1	1404	740.347568987839	2.606388115319
1	1410	743.898026929074	1.828955693746
1	1412	744.222803172972	1.998854217186
1	1416	749.466529913152	0.401107858539
1	1422	751.305455278234	1.29425884891
1	1424	752.645315683448	2.458536485711
1	1430	755.914709857671	1.583084393687
1	1432	756.002429524781	0.356330776203
1	1436	760.515425402075	0.609205562439
1	1444	765.573899132172	1.902325433496
1	1446	767.251841645501	2.772059392476
1	1448	768.537870516437	3.678395374441
1	1458	775.567538334587	1.651256736676
1	1466	779.474268253805	4.894636286263
1	1468	779.670422834066	5.070865835934
1	1470	781.260014741038	6.422135483316
1	1474	782.369330269045	5.663794477073
1	1476	782.375947358871	5.501813246653
1	1478	783.196398473712	5.534926050217
1	1480	783.744194474981	1.883373207592
1	1484	785.422406912205	1.192130706686
1	1488	788.243754791305	0.00455945789
1	1492	789.623414564201	0.391710421682
1	1498	792.340921248304	0.153903145834
1	1500	792.468258930489	0.154779724941
1	1506	803.105743373582	2.801905131303
1	1508	803.183139239172	1.510414699046
1	1516	806.358344279522	0.643641791817
1	1520	807.518258675449	1.307556583679
1	1522	807.727851532934	1.497238277548
1	1524	808.601652191526	1.55043736412
1	1530	813.591408559463	1.138537511609
1	1532	814.211917551155	0.902828700571
1	1538	819.386201402793	1.096134070221
1	1540	819.452631473818	0.070710579478
1	1544	826.073739624518	0.744311097417
1	1552	828.915394729193	2.031799726885
1	1562	831.27448220292	4.36017392331
1	1566	832.332268808963	4.476377997266
1	1570	833.48499089716	4.123714054427
1	1576	834.683608735584	4.295820730486
1	1580	835.725733844241	5.302218340725
1	1584	837.134260465319	6.522198238601
1	1588	837.699276039098	6.119521226433
1	1594	839.584228044348	7.161855709436
1	1596	839.643357903339	5.990395870883
1	1598	841.610045069064	7.205463023336
1	1600	842.301952336777	7.331216035839
1	1602	844.69050661706	8.672036039674
1	1604	845.231234423854	7.915727927571
1	1606	845.51849091503	7.539251674452
1	1608	846.033415855748	7.059664540654
1	1612	847.279802051537	0.214554188375
1	1616	848.830520066493	0.688769978816
1	1622	849.953794932646	1.04416679908
1	1624	850.956495524279	1.090985941196
1	1628	853.79536135511	1.926688093893
1	1632	855.854340907175	0.019070174506
1	1636	857.107333558397	0.224583937258
1	1640	861.103700159963	0.880388356484
1	1648	864.674952024998	2.646867349609
1	1650	865.772783132358	2.1197318906
1	1652	866.37174755477	2.71384499122
1	1658	872.310697409787	4.616868161151
1	1660	872.46488795769	2.665144744195
1	1664	873.495841115027	0.37528340394
1	1668	874.214528000608	0.000928226092
1	1672	874.993370974849	0.461013150471
1	1678	876.156345418514	0.265043253154
1	1680	876.457208128748	0.376074704669
1	1686	881.081369170874	3.323493774371
1	1690	881.506462200736	2.074905823894
1	1692	881.511298617247	0.202371015462
1	1696	886.570503713069	1.049180305065
1	1702	890.945625607804	2.836513261669
1	1704	891.650854085809	1.022212667387
1	1710	893.451113547786	1.124433437813
1	1714	897.308543999671	4.730145428271
1	1716	897.867382839644	2.382550152559
1	1720	900.139189666029	1.456519633276
1	1724	906.300075195466	0.073028301294
1	1732	907.796928814641	0.955565808689
1	1734	907.886934969733	0.5911891474
1	1742	910.150134131339	2.702534377689
1	1744	910.465979997728	2.045248785833
1	1746	910.658305781714	1.443296709567
1	1748	911.10935766118	1.153173745598
1	1752	914.681502524874	0.031566652018
1	1756	915.295830296821	0.427503799514
1	1760	917.305818237017	0.223728021585
1	1770	919.989558411233	1.691630652898
1	1772	920.021560724619	1.670927239454
1	1774	920.83234989738	1.861414783995
1	1776	921.538102399844	2.353961149589
1	1780	922.53226371745	0.931306779182
1	1784	926.338939469205	0.656928842285
1	1788	926.711313335934	0.151134655936
1	1792	928.434883101745	0.761995102759
1	1800	930.61374532783	1.63639455299
1	1802	932.852930495566	3.242408005789
1	1806	935.06583167271	4.869578487939
1	1812	936.615429680754	2.610773406196
1	1814	937.240341911306	1.356406299711
1	1816	937.634965557598	1.180583376664
1	1820	942.41297651576	0.193005779276
1	1824	945.16550829235	1.282243579811
1	1830	954.036823276437	0.954599062806
1	1832	954.055320033704	0.58431902336
1	1838	957.544980986945	2.127185272076
1	1844	958.851973813622	3.134854884482
1	1848	960.853525368555	2.216402710073
1	1852	962.063884745857	3.280746481316
1	1856	963.108568899042	3.376954971406
1	1862	964.761867379131	2.962365219963
1	1866	965.293837143437	2.310952188444
1	1868	965.312201464434	1.945668273942
1	1870	966.160990333314	1.650317159283
1	1872	966.162169486808	0.952340100651
1	1876	968.353301673955	1.390733559718
1	1880	972.14149459335	1.469699913515
1	1886	973.312880344622	1.170586059322
1	1888	973.5191779128	1.293462739028
1	1894	978.182302377237	1.13672925864
1	1896	978.214652530501	0.387435054428
1	1900	982.392132359666	2.136001946969
1	1904	983.766480600073	0.026929398116
1	1908	987.475849618404	0.896669268231
1	1912	988.921388003746	0.036688055907
1	1916	990.363134101766	0.962644955634
1	1920	990.423787477142	0.02303992146