version 3
run General-7-20221103-09:44:57-15908
attr configname General
attr datetime 20221103-09:44:57
attr datetimef 20221103-094457
attr experiment General
attr inifile simu_1.ini
attr iterationvars ""
attr iterationvarsd ""
attr iterationvarsf ""
attr measurement ""
attr network Rete
attr processid 15908
attr repetition 7
attr replication #7
attr resultdir results
attr runnumber 7
attr seedset 7
config network Rete
config record-eventlog true
config repeat 30
config sim-time-limit 1000s
config simtime-resolution ps
config **.Servente.serviceTime exponential(1s)
config **.Arrivi.interArrivalTime exponential(2s)

vector 0 Rete.Servente queueLength:vector ETV
attr interpolationmode sample-hold
attr recordingmode vector
attr title "queue length"
vector 1 Rete.Pozzo lifeTime:vector ETV
attr interpolationmode none
attr recordingmode vector
attr title "lifetime of arrived jobs"
attr unit s
0	0	0	0
0	4	0.674583772306	1
0	6	1.442888156137	2
0	7	1.672512513146	1
0	10	2.596851860982	2
0	12	5.167688928804	3
0	13	5.499408654637	2
0	16	6.383775500249	3
0	18	7.120151046152	4
0	20	8.666679605537	5
0	22	9.279378980367	6
0	23	9.315645058358	5
0	25	9.406383483214	4
0	27	9.481162131677	3
0	29	10.024807497218	2
0	31	10.337382149836	1
0	33	10.353420437439	0
0	36	10.670160230273	1
0	37	11.046332642654	0
0	40	12.170716417671	1
0	41	12.183363536857	0
0	60	22.50969105445	1
0	61	22.68171162675	0
0	84	35.008899133181	1
0	85	37.418766903113	0
0	92	39.202923923119	1
0	93	39.615632728118	0
0	108	50.043360132938	1
0	109	50.460168566156	0
0	112	50.928059986419	1
0	114	51.357804740727	2
0	115	51.565845480134	1
0	117	51.671732772181	0
0	140	63.386545513449	1
0	141	64.558848248999	0
0	144	64.569553847433	1
0	145	66.022661033065	0
0	152	71.301491381969	1
0	154	71.60946283974	2
0	155	71.755715420711	1
0	157	71.842917467768	0
0	160	72.255526121938	1
0	161	72.445936835946	0
0	168	74.583024730842	1
0	169	74.911480910914	0
0	172	75.247601958734	1
0	173	75.374073796558	0
0	180	81.460052589772	1
0	181	81.594608076014	0
0	196	95.111415908895	1
0	197	95.621730715748	0
0	200	95.82573483195	1
0	201	96.170559464176	0
0	228	106.317760613323	1
0	229	106.395692087451	0
0	240	114.338595061787	1
0	241	114.781421183629	0
0	244	115.683022163328	1
0	245	115.930002965897	0
0	252	122.174731889762	1
0	253	122.210278860633	0
0	268	130.267664191358	1
0	270	131.455732108588	2
0	271	132.858862584026	1
0	273	133.935419842216	0
0	292	142.645656431714	1
0	294	142.846619865812	2
0	295	143.186500079002	1
0	297	144.790428044353	0
0	332	162.476795785005	1
0	333	162.500562572402	0
0	344	167.991360897952	1
0	345	168.375634869069	0
0	352	172.578271082737	1
0	354	173.01750929713	2
0	355	173.383210866932	1
0	358	175.264869659345	2
0	359	175.471290494734	1
0	361	175.783503627436	0
0	364	178.488541714549	1
0	365	178.58221221748	0
0	372	179.961693780215	1
0	374	180.936900741601	2
0	375	181.114204176904	1
0	377	181.379590827768	0
0	380	181.584384569715	1
0	382	181.971018666294	2
0	383	182.02540510475	1
0	385	182.533743467209	0
0	408	196.633193045965	1
0	409	197.027607342486	0
0	424	206.430971554712	1
0	425	208.067689630188	0
0	428	209.266792244793	1
0	429	209.496954634087	0
0	436	211.100488006268	1
0	437	211.252592157411	0
0	448	218.18779376808	1
0	449	218.488615403327	0
0	456	222.578108542452	1
0	457	223.307157402443	0
0	460	224.345372894726	1
0	462	224.75695998847	2
0	464	225.031230829773	3
0	465	226.151186626849	2
0	467	226.413110859252	1
0	469	227.282631107488	0
0	492	235.456027839736	1
0	493	236.941659289732	0
0	496	237.758622323396	1
0	497	238.886399484037	0
0	504	239.596275796272	1
0	505	239.858531915664	0
0	508	241.195706176065	1
0	509	241.452841616948	0
0	512	242.67447002646	1
0	514	244.011583987712	2
0	516	244.652707022531	3
0	517	245.147323960025	2
0	520	245.263127233299	3
0	521	245.332571072071	2
0	524	246.761655784318	3
0	525	247.425713455689	2
0	527	249.824616350272	1
0	529	250.801250292329	0
0	552	270.580174142547	1
0	553	271.313304063656	0
0	556	271.573997618533	1
0	557	272.962707349657	0
0	576	282.863284012277	1
0	577	283.53477356665	0
0	608	312.621617463525	1
0	610	312.829614204585	2
0	611	313.020783575279	1
0	613	313.857261804821	0
0	616	313.943540048189	1
0	617	314.001791121631	0
0	624	314.451934709907	1
0	626	315.163043908664	2
0	627	315.320655034883	1
0	629	315.360412410707	0
0	644	330.041655042171	1
0	646	330.872891449934	2
0	647	331.668550055848	1
0	649	331.946813150454	0
0	656	336.324030002397	1
0	657	337.572873520596	0
0	660	339.266258616585	1
0	661	339.58427546201	0
0	664	340.129676228728	1
0	665	340.524896804667	0
0	668	340.545306336752	1
0	669	342.585533707618	0
0	688	353.165550161879	1
0	689	354.384414862045	0
0	696	356.012477958982	1
0	697	356.647726179131	0
0	708	359.891512536625	1
0	709	360.029787157664	0
0	720	364.211830222734	1
0	721	364.535012071671	0
0	756	390.189194619879	1
0	758	391.481726789387	2
0	759	391.48643522472	1
0	762	391.707788143809	2
0	764	392.630227714661	3
0	766	392.904013497711	4
0	767	393.047861657927	3
0	770	393.433692996164	4
0	772	394.633293044043	5
0	773	394.802292076725	4
0	775	395.125694157925	3
0	778	395.175430509573	4
0	780	396.568965521219	5
0	781	397.948576740358	4
0	784	400.005888989497	5
0	786	400.112183383545	6
0	787	400.50738604724	5
0	789	400.509242413612	4
0	792	401.076371895865	5
0	794	401.465903095468	6
0	795	401.559431259459	5
0	797	402.332543791345	4
0	800	403.276709084303	5
0	801	403.726683077705	4
0	803	403.790331683584	3
0	805	404.507299590831	2
0	808	404.821159958225	3
0	810	405.375794275625	4
0	811	405.873100089909	3
0	813	405.879295970759	2
0	815	406.804525407669	1
0	817	408.15648308309	0
0	832	417.551138444409	1
0	834	417.559476128774	2
0	835	417.640927191657	1
0	837	417.799583193195	0
0	840	417.877304222004	1
0	842	417.952018876102	2
0	843	421.429272324427	1
0	845	421.746995602741	0
0	852	424.780624839959	1
0	853	425.071828980613	0
0	860	426.981010604842	1
0	862	427.446629057414	2
0	864	430.862329720701	3
0	865	431.137139372722	2
0	867	432.149121807456	1
0	869	432.460533829581	0
0	872	433.417395717117	1
0	874	433.826274397604	2
0	875	433.89218020572	1
0	878	434.242857979173	2
0	880	434.97819859193	3
0	882	435.169093448274	4
0	883	435.554792011835	3
0	885	435.69367442869	2
0	888	435.734863691468	3
0	889	436.600136412495	2
0	891	436.696542526311	1
0	893	437.293647809499	0
0	896	438.011213666125	1
0	898	438.998702041325	2
0	899	439.553269035847	1
0	902	440.239521532694	2
0	903	440.637522151314	1
0	905	440.648061026388	0
0	912	442.02273980404	1
0	913	442.571297861529	0
0	928	453.990369134167	1
0	929	454.149254391322	0
0	936	458.641650658055	1
0	937	458.732655942251	0
0	940	459.365950734845	1
0	941	459.60183738377	0
0	952	461.511653337115	1
0	953	462.425278268557	0
0	972	475.170906239146	1
0	974	475.365362896267	2
0	976	475.574634482714	3
0	977	476.715127539338	2
0	980	477.579167725773	3
0	981	477.754303982305	2
0	983	478.126084680798	1
0	986	478.238622471292	2
0	987	478.442719855137	1
0	989	480.651980246807	0
0	992	481.043902478211	1
0	993	481.434246455525	0
0	996	481.498980881608	1
0	997	482.045995921273	0
0	1000	482.187091440163	1
0	1002	483.771833424261	2
0	1004	483.889749263927	3
0	1005	484.303290148222	2
0	1007	485.118192899795	1
0	1009	485.848739228916	0
0	1020	489.176305609452	1
0	1021	490.455207419573	0
0	1024	490.941201086704	1
0	1025	491.280151854692	0
0	1028	492.689551550061	1
0	1029	493.525840107725	0
0	1040	497.73683378631	1
0	1042	500.325983909537	2
0	1044	500.571933497747	3
0	1045	501.393852045777	2
0	1047	501.447887771365	1
0	1049	501.922326619557	0
0	1056	507.98770641484	1
0	1057	508.079243249397	0
0	1064	510.721341077918	1
0	1065	510.956067341963	0
0	1072	514.333877368717	1
0	1073	514.574974124325	0
0	1092	521.233802410346	1
0	1094	523.23604254662	2
0	1095	523.589108424343	1
0	1098	524.275330115235	2
0	1100	524.624116552808	3
0	1101	525.933795838385	2
0	1103	526.287636590643	1
0	1106	526.452539844102	2
0	1107	526.53819807683	1
0	1109	526.764593726188	0
0	1124	541.014709747182	1
0	1125	543.201376566027	0
0	1136	549.303948691151	1
0	1137	549.73641697138	0
0	1148	554.780779657487	1
0	1149	554.907205914464	0
0	1176	576.17409290652	1
0	1178	576.31475022382	2
0	1180	576.506212698466	3
0	1182	578.535449149582	4
0	1183	578.70055978499	3
0	1186	579.955432360798	4
0	1188	580.207987481104	5
0	1189	581.990181227564	4
0	1191	582.231982573367	3
0	1193	582.728305864204	2
0	1195	584.168305134106	1
0	1197	586.564406870105	0
0	1200	586.833784503337	1
0	1202	587.372451827561	2
0	1204	588.641124475699	3
0	1205	589.347204748957	2
0	1207	589.352862681728	1
0	1209	589.622689903743	0
0	1212	591.039146899287	1
0	1214	591.06387552121	2
0	1216	591.161779626253	3
0	1218	591.298266822872	4
0	1220	592.285050113623	5
0	1222	596.124335957371	6
0	1223	596.764025460673	5
0	1226	597.673296417121	6
0	1227	597.75467675647	5
0	1229	601.266487853562	4
0	1232	602.119614222207	5
0	1233	602.998726989962	4
0	1236	603.572444080645	5
0	1237	603.9387640542	4
0	1239	604.44726286629	3
0	1242	604.712749826146	4
0	1243	606.49037706214	3
0	1245	607.877910258866	2
0	1248	608.31006085199	3
0	1250	608.541541099459	4
0	1251	609.910914045667	3
0	1253	611.101735976939	2
0	1255	612.366295775486	1
0	1258	612.651505846611	2
0	1260	612.857315907506	3
0	1262	613.149381300365	4
0	1264	613.858676532904	5
0	1265	614.584525007323	4
0	1268	615.13500354571	5
0	1269	615.249905386281	4
0	1271	615.953210717335	3
0	1274	615.965208614414	4
0	1275	616.577790771612	3
0	1277	616.763199554929	2
0	1279	617.034794097445	1
0	1281	617.547715940294	0
0	1292	620.257679373571	1
0	1294	621.271614417529	2
0	1295	621.638069330326	1
0	1298	621.707365147313	2
0	1299	622.784980226156	1
0	1302	623.002288012023	2
0	1304	623.220932676079	3
0	1305	623.333164301167	2
0	1307	623.571409020707	1
0	1310	624.149077194529	2
0	1311	624.32739517358	1
0	1313	625.480169688677	0
0	1320	629.861750388171	1
0	1321	631.855906931039	0
0	1324	631.9341878671	1
0	1326	632.345053825425	2
0	1328	632.424684556445	3
0	1329	632.598881298016	2
0	1331	634.173829304435	1
0	1333	635.554014352337	0
0	1340	638.274464443393	1
0	1341	638.943910643624	0
0	1360	647.479804494374	1
0	1362	649.113884214366	2
0	1363	649.341033951031	1
0	1365	649.383077702578	0
0	1368	650.445856921407	1
0	1369	650.454346404421	0
0	1380	655.97358895173	1
0	1381	657.211374006604	0
0	1412	679.338072426226	1
0	1413	680.212784560907	0
0	1416	681.224454588814	1
0	1417	681.539817701115	0
0	1424	682.516666203317	1
0	1425	684.179426239789	0
0	1432	689.785838659175	1
0	1433	690.338025463244	0
0	1448	695.515058051786	1
0	1449	697.159609077587	0
0	1456	700.604779568746	1
0	1458	701.964517146748	2
0	1460	702.556333986208	3
0	1461	702.765473656265	2
0	1463	703.034350095891	1
0	1466	703.215203096946	2
0	1468	703.533734114397	3
0	1470	704.610074215084	4
0	1471	705.135319033763	3
0	1474	706.16055173881	4
0	1476	707.180366564344	5
0	1478	708.178444915615	6
0	1479	708.59844000095	5
0	1482	709.060615122189	6
0	1484	710.29411586041	7
0	1485	710.445471418403	6
0	1487	710.766423837705	5
0	1489	710.841900254831	4
0	1491	710.846169737566	3
0	1493	711.082685151388	2
0	1495	711.720872077247	1
0	1497	712.742721902183	0
0	1500	712.876237642137	1
0	1501	713.065526292346	0
0	1508	724.142355557297	1
0	1510	725.158604379992	2
0	1512	725.553081902253	3
0	1514	725.563251798474	4
0	1515	726.614100009718	3
0	1517	727.263009758648	2
0	1520	727.592622815722	3
0	1522	728.210299315275	4
0	1523	728.297000428969	3
0	1526	728.870902841336	4
0	1528	730.1440131478	5
0	1530	730.27511143403	6
0	1531	735.072072596722	5
0	1533	735.944601382187	4
0	1535	736.363851244403	3
0	1538	737.262502732422	4
0	1539	739.632342146164	3
0	1542	739.754490858281	4
0	1543	742.45374260205	3
0	1545	742.556466226566	2
0	1547	743.00383376679	1
0	1550	743.422395170491	2
0	1551	747.391832501856	1
0	1553	751.790964606958	0
0	1556	752.615635035142	1
0	1557	752.774114522486	0
0	1580	764.994045971112	1
0	1582	765.807542145783	2
0	1583	766.060465940444	1
0	1586	767.369152067854	2
0	1587	767.521058975612	1
0	1589	767.522692341744	0
0	1592	767.922371252297	1
0	1593	768.097517371804	0
0	1596	769.415659476844	1
0	1598	769.461779718129	2
0	1599	770.352232156433	1
0	1601	770.703456378749	0
0	1608	772.811691826637	1
0	1609	773.185887550556	0
0	1616	781.513017153111	1
0	1618	783.451599553599	2
0	1620	783.689645939639	3
0	1622	783.841095983119	4
0	1623	785.305320365238	3
0	1625	785.817828285142	2
0	1627	787.767005872094	1
0	1630	788.23797668176	2
0	1631	788.468127069931	1
0	1633	788.503179664237	0
0	1636	788.746183496134	1
0	1637	788.932976499971	0
0	1648	798.788261267447	1
0	1649	799.636539334015	0
0	1652	803.249231791931	1
0	1653	804.441222469744	0
0	1680	831.815287774224	1
0	1681	832.047286264283	0
0	1684	832.826873430659	1
0	1685	834.590403710174	0
0	1688	836.435046545497	1
0	1689	837.057875998702	0
0	1700	851.033187799552	1
0	1702	851.283172193664	2
0	1704	851.383008121659	3
0	1705	853.761493496307	2
0	1708	853.806427486609	3
0	1710	854.707547695595	4
0	1712	855.340294696993	5
0	1713	856.238648570827	4
0	1715	856.625290553331	3
0	1717	857.244660325387	2
0	1719	857.858283531744	1
0	1721	858.453360971425	0
0	1724	859.577135027005	1
0	1726	860.076282791838	2
0	1727	861.560704332251	1
0	1730	861.934472004704	2
0	1732	862.804341868429	3
0	1733	862.956908584128	2
0	1736	863.301388103246	3
0	1737	863.425565360304	2
0	1740	864.220250537392	3
0	1741	865.778691270084	2
0	1744	867.179869395977	3
0	1745	867.506617537502	2
0	1747	867.654581407169	1
0	1750	867.715515742737	2
0	1751	868.046694515172	1
0	1753	868.119711822141	0
0	1756	868.287367950376	1
0	1757	868.584839671049	0
0	1772	875.700933575283	1
0	1773	875.97387986827	0
0	1776	878.009141667841	1
0	1778	878.08495824269	2
0	1779	878.723136926757	1
0	1781	879.003249718979	0
0	1816	902.944433372554	1
0	1817	904.789209862587	0
0	1828	911.222482520797	1
0	1829	911.807207312477	0
0	1836	916.497904597693	1
0	1837	916.879597878331	0
0	1840	917.251542008598	1
0	1841	917.337444678197	0
0	1844	917.544113939188	1
0	1845	918.00730190407	0
0	1848	921.412572680646	1
0	1849	922.242029073252	0
0	1856	925.86709699776	1
0	1857	927.212703443714	0
0	1888	936.226945514351	1
0	1889	936.865304791998	0
0	1892	936.984526831084	1
0	1893	938.024359912355	0
0	1896	938.697549627093	1
0	1897	939.22349987452	0
0	1920	955.318973586571	1
0	1922	955.444096554757	2
0	1923	956.18107347571	1
0	1925	956.927308976087	0
0	1936	965.692886296926	1
0	1937	968.683226261704	0
0	1940	968.877388508736	1
0	1942	969.232137088595	2
0	1943	969.527190869308	1
0	1945	969.588951932283	0
0	1948	970.151525555191	1
0	1949	970.217331159731	0
0	1964	979.716188612842	1
0	1965	980.03507634994	0
0	1980	992.197875036475	1
0	1981	994.654936395511	0
1	8	1.672512513146	1.513758690209
1	14	5.499408654637	4.824824882331
1	24	9.315645058358	7.872756902221
1	26	9.406383483214	6.809531622232
1	28	9.481162131677	4.313473202873
1	30	10.024807497218	3.641031996969
1	32	10.337382149836	3.217231103684
1	34	10.353420437439	1.686740831902
1	38	11.046332642654	1.766953662287
1	42	12.183363536857	1.513203306584
1	44	13.81167361797	1.640957200299
1	48	16.712358327701	0.479554910682
1	52	17.104476028261	0.068210689374
1	56	18.374410122707	0.339881883359
1	62	22.68171162675	2.40343940986
1	64	22.921728426274	0.412037371824
1	68	25.47994404149	0.601706214804
1	72	28.404090017577	2.676639086139
1	76	31.057750397229	0.025214456244
1	80	32.559405501419	0.917663978975
1	86	37.418766903113	2.998325514519
1	88	37.680525099583	2.671625966402
1	94	39.615632728118	0.795157573272
1	96	42.013940142989	2.81101621987
1	100	42.47441591706	0.142911759031
1	104	48.621928810123	0.741104106832
1	110	50.460168566156	1.387935139666
1	116	51.565845480134	1.522485347196
1	118	51.671732772181	0.743672785762
1	120	51.900956132918	0.543151392191
1	124	53.293946863838	0.674847429607
1	128	54.402947979146	0.465827862017
1	132	56.488361233689	0.648941133864
1	136	62.336985888428	0.455533446821
1	142	64.558848248999	1.819652847647
1	146	66.022661033065	2.636115519616
1	148	66.399530931042	1.829977083609
1	156	71.755715420711	0.850094219407
1	158	71.842917467768	0.541426085799
1	162	72.445936835946	0.836473996206
1	164	72.881312381004	0.625786259066
1	170	74.911480910914	1.071190137226
1	174	75.374073796558	0.791049065716
1	176	75.988581670232	0.740979711498
1	182	81.594608076014	1.270554725996
1	184	82.127324614909	0.667272025137
1	188	84.914199585496	2.368973477845
1	192	91.3137584508	0.199001850688
1	198	95.621730715748	1.351386310655
1	202	96.170559464176	1.059143555281
1	204	96.726475854734	0.900741022784
1	208	98.234073055238	1.006160376992
1	212	99.920332635928	0.740042161296
1	216	101.856127273935	0.535948547278
1	220	101.921482417647	0.001427898278
1	224	103.055911366749	0.096799873103
1	230	106.395692087451	1.235788223133
1	232	107.138755814673	0.82099520135
1	236	110.553111568711	1.191255550113
1	242	114.781421183629	3.11155456493
1	246	115.930002965897	1.59140790411
1	248	115.984595056408	0.30157289308
1	254	122.210278860633	0.369402280725
1	256	123.108225587556	0.933493697794
1	260	124.537384180737	0.268036846626
1	264	129.251165287619	3.351579118165
1	272	132.858862584026	2.901299260471
1	274	133.935419842216	3.667755650858
1	276	134.574692653773	3.118960545185
1	280	137.07061709886	1.84185375229
1	284	137.537005140204	0.140539481931
1	288	141.413021426312	0.369230088805
1	296	143.186500079002	0.621750471842
1	298	144.790428044353	2.144771612639
1	300	145.455620090593	2.609000224781
1	304	145.702224126815	0.147197048383
1	308	147.005544068962	0.420888226688
1	312	149.271100968921	0.392192829318
1	316	150.630184851352	0.357273551107
1	320	151.466101519053	0.180924211178
1	324	154.902998953215	0.535975536011
1	328	161.007086499747	0.594425842981
1	334	162.500562572402	1.491212200842
1	336	164.092114902143	1.615319117138
1	340	167.267233080166	0.738961051238
1	346	168.375634869069	0.617354028683
1	348	169.881675410095	1.890314512143
1	356	173.383210866932	2.182927847152
1	360	175.471290494734	2.893019411997
1	362	175.783503627436	2.765994330306
1	366	178.58221221748	3.317342558135
1	368	178.62371758102	0.135175866471
1	376	181.114204176904	2.084829849509
1	378	181.379590827768	1.417897047553
1	384	182.02540510475	1.088504363149
1	386	182.533743467209	0.949358897494
1	388	183.796908144747	1.825889478453
1	392	185.316932301513	0.159168748766
1	396	189.918536322738	1.075134834962
1	400	192.005566415082	0.071766788536
1	404	194.423166472033	0.441720399386
1	410	197.027607342486	1.675735563204
1	412	197.585707733268	0.952514687303
1	416	198.834920620323	0.915926884593
1	420	204.971304243914	1.302546360716
1	426	208.067689630188	1.721641835412
1	430	209.496954634087	3.065983079375
1	432	209.504123546185	0.237331301392
1	438	211.252592157411	0.545170086759
1	440	211.874603035006	0.774115028738
1	444	212.152752985222	0.057099066495
1	450	218.488615403327	0.7796687783
1	452	219.424524204073	1.236730435993
1	458	223.307157402443	1.762899150729
1	466	226.151186626849	3.573078084397
1	468	226.413110859252	2.067737964526
1	470	227.282631107488	2.525671119018
1	472	228.358968530584	3.327737700811
1	476	228.519401199149	0.142109776952
1	480	229.815546134804	0.253704097379
1	484	233.616966234129	0.85534284645
1	488	234.519096942406	0.185755919211
1	494	236.941659289732	1.524316501194
1	498	238.886399484037	3.430371644301
1	500	238.920653725402	1.162031402006
1	506	239.858531915664	0.760665715641
1	510	241.452841616948	1.856565820676
1	518	245.147323960025	3.95161778396
1	522	245.332571072071	2.658101045611
1	526	247.425713455689	3.414129467977
1	528	249.824616350272	5.171909327741
1	530	250.801250292329	5.53812305903
1	532	251.021314699123	4.259658914805
1	536	255.673623081827	0.582553913121
1	540	258.347407263169	1.270227078264
1	544	263.759028621357	1.866559447685
1	548	268.644591182067	0.184253794594
1	554	271.313304063656	1.093532115543
1	558	272.962707349657	2.38253320711
1	560	273.760579969271	2.186582350738
1	564	277.53870690081	0.179984281009
1	568	278.236231617441	0.036175309511
1	572	280.97272993104	0.330636641739
1	578	283.53477356665	1.64958746091
1	580	283.580572778085	0.717288765808
1	584	284.37492076684	0.008250443412
1	588	288.263949130655	0.44881630583
1	592	289.915728530805	0.065736342395
1	596	293.985831838813	0.161914757544
1	600	295.872028866051	0.023463491617
1	604	311.112905047058	0.743850830765
1	612	313.020783575279	1.193019369626
1	614	313.857261804821	1.235644341296
1	618	314.001791121631	1.172176917046
1	620	314.404296437894	0.460756389705
1	628	315.320655034883	0.892442022032
1	630	315.360412410707	0.9084777008
1	632	320.260989597984	5.09794568932
1	636	321.088582439247	0.276548169965
1	640	328.29997172359	0.010636274113
1	648	331.668550055848	1.775730585425
1	650	331.946813150454	1.905158108283
1	652	332.560416486752	1.687525036818
1	658	337.572873520596	1.475966785559
1	662	339.58427546201	3.260245459613
1	666	340.524896804667	1.258638188082
1	670	342.585533707618	2.45585747889
1	672	342.609727043667	2.064420706915
1	676	345.737930776995	0.316898374687
1	680	349.69437939215	0.324649813945
1	684	350.51626393167	0.128552298032
1	690	354.384414862045	2.415904416318
1	692	354.41532702677	1.249776864891
1	698	356.647726179131	1.11645358359
1	700	356.721738431272	0.70926047229
1	704	357.242514858232	0.447507367718
1	710	360.029787157664	0.541455884899
1	712	360.22995211499	0.338439578365
1	716	363.009196198876	0.736084136192
1	722	364.535012071671	0.765700151705
1	724	364.916336740144	0.70450651741
1	728	367.65006391834	1.335936124709
1	732	367.914509878021	0.174594383325
1	736	370.289901676244	0.21382239511
1	740	372.217774690857	0.437747137282
1	744	375.195828748436	0.475420076792
1	748	375.950052533432	0.231031902959
1	752	384.597206658452	2.509722517222
1	760	391.48643522472	1.760804971064
1	768	393.047861657927	2.858667038048
1	774	394.802292076725	3.320565287338
1	776	395.125694157925	3.417906014116
1	782	397.948576740358	5.318349025697
1	788	400.50738604724	7.603372549529
1	790	400.509242413612	7.075549417448
1	796	401.559431259459	6.926138215416
1	798	402.332543791345	7.157113281772
1	802	403.726683077705	7.157717556486
1	804	403.790331683584	3.784442694087
1	806	404.507299590831	4.395116207286
1	812	405.873100089909	4.796728194044
1	814	405.879295970759	4.413392875291
1	816	406.804525407669	3.527816323366
1	818	408.15648308309	3.335323124865
1	820	408.495570655236	3.119776379611
1	824	412.339450543172	1.115867959215
1	828	413.66314659848	1.244964221136
1	836	417.640927191657	1.068423469766
1	838	417.799583193195	0.248444748786
1	844	421.429272324427	3.869796195653
1	846	421.746995602741	3.869691380737
1	848	422.299729813918	4.347710937816
1	854	425.071828980613	0.900509236502
1	856	425.112264148285	0.331639308326
1	866	431.137139372722	4.47715825863
1	868	432.149121807456	5.168111202614
1	870	432.460533829581	5.013904772167
1	876	433.89218020572	3.029850485019
1	884	435.554792011835	2.137396294718
1	886	435.69367442869	1.867400031086
1	890	436.600136412495	2.357278433322
1	892	436.696542526311	1.718343934381
1	894	437.293647809499	2.124554361225
1	900	439.553269035847	3.818405344379
1	904	440.637522151314	2.626308485189
1	906	440.648061026388	1.649358985063
1	908	440.758670072132	0.519148539438
1	914	442.571297861529	1.154878034117
1	916	444.26898788822	2.24624808418
1	920	445.806336575927	0.993037258577
1	924	450.635202345324	0.277101720486
1	930	454.149254391322	1.539076006255
1	932	454.306703177272	0.316334043105
1	938	458.732655942251	1.756062249989
1	942	459.60183738377	0.960186725715
1	944	459.943444715704	0.577493980859
1	948	461.397356696235	0.719991084163
1	954	462.425278268557	0.991152760595
1	956	462.724479091202	1.212825754087
1	960	465.071418681234	1.876706835743
1	964	472.245583777324	0.546891075614
1	968	474.861805039316	2.228753556693
1	978	476.715127539338	1.80465363916
1	982	477.754303982305	2.583397743159
1	984	478.126084680798	2.760721784531
1	988	478.442719855137	2.868085372423
1	990	480.651980246807	3.072812521034
1	994	481.434246455525	3.195623984233
1	998	482.045995921273	1.002093443062
1	1006	484.303290148222	2.804309266614
1	1008	485.118192899795	2.931101459632
1	1010	485.848739228916	2.076905804655
1	1012	486.246103882208	2.356354618281
1	1016	486.445269641185	0.035910470996
1	1022	490.455207419573	1.400468421745
1	1026	491.280151854692	2.10384624524
1	1030	493.525840107725	2.584639021021
1	1032	494.437793321675	1.748241771614
1	1036	495.078616638164	0.41103200145
1	1046	501.393852045777	4.214456885884
1	1048	501.447887771365	3.711053985055
1	1050	501.922326619557	1.59634271002
1	1052	503.241418192006	2.669484694259
1	1058	508.079243249397	0.463425155154
1	1060	508.527822159255	0.540115744415
1	1066	510.956067341963	2.091774516251
1	1068	511.352513707409	0.631172629491
1	1074	514.574974124325	2.198122322528
1	1076	515.607764899094	1.273887530377
1	1080	517.086255903039	0.39905998627
1	1084	517.879065880265	0.061378352908
1	1088	518.495570571754	0.281182374908
1	1096	523.589108424343	3.455015989183
1	1102	525.933795838385	4.699993428039
1	1104	526.287636590643	3.051594044023
1	1108	526.53819807683	2.262867961595
1	1110	526.764593726188	2.14047717338
1	1112	526.944889390709	0.492349546607
1	1116	532.55369128815	1.504447742088
1	1120	536.468928923401	0.144869288198
1	1126	543.201376566027	3.254340098423
1	1128	543.956836240756	2.942126493574
1	1132	546.409652276134	0.044129473831
1	1138	549.73641697138	2.672992172806
1	1140	550.179935319385	0.875986628234
1	1144	553.14502761653	1.314611214805
1	1150	554.907205914464	0.741724188643
1	1152	555.004357772907	0.22357811542
1	1156	559.163863028296	0.112115747265
1	1160	559.848976099859	0.161607516775
1	1164	560.509565687258	0.175782984919
1	1168	564.086796882692	0.054198346516
1	1172	573.428563290468	0.04815418819
1	1184	578.70055978499	2.964782197076
1	1190	581.990181227564	5.816088321044
1	1192	582.231982573367	5.917232349547
1	1194	582.728305864204	6.222093165738
1	1196	584.168305134106	5.632855984524
1	1198	586.564406870105	6.608974509307
1	1206	589.347204748957	9.139217267853
1	1208	589.352862681728	2.519078178391
1	1210	589.622689903743	2.250238076182
1	1224	596.764025460673	8.122900984974
1	1228	597.75467675647	6.715529857183
1	1230	601.266487853562	10.202612332352
1	1234	602.998726989962	11.836947363709
1	1238	603.9387640542	12.640497231328
1	1240	604.44726286629	12.162212752667
1	1244	606.49037706214	10.366041104769
1	1246	607.877910258866	10.204613841745
1	1252	609.910914045667	7.79129982346
1	1254	611.101735976939	7.529291896294
1	1256	612.366295775486	7.65354594934
1	1266	614.584525007323	6.274464155333
1	1270	615.249905386281	6.708364286822
1	1272	615.953210717335	3.301704870724
1	1276	616.577790771612	3.720474864106
1	1278	616.763199554929	3.613818254564
1	1280	617.034794097445	3.176117564541
1	1282	617.547715940294	2.412712394584
1	1284	618.6401198062	2.674911191786
1	1288	620.011940442483	0.468724289564
1	1296	621.638069330326	1.493801854968
1	1300	622.784980226156	2.527300852585
1	1306	623.333164301167	2.061549883638
1	1308	623.571409020707	1.864043873394
1	1312	624.32739517358	1.325107161557
1	1314	625.480169688677	2.259237012598
1	1316	625.860035930271	1.710958735742
1	1322	631.855906931039	2.234711575088
1	1330	632.598881298016	2.737130909845
1	1332	634.173829304435	2.239641437335
1	1334	635.554014352337	3.208960526912
1	1336	635.607369664415	3.18268510797
1	1342	638.943910643624	1.754137302741
1	1344	638.952748691411	0.678284248018
1	1348	641.04362597383	1.12119943385
1	1352	642.183982848616	0.181178922262
1	1356	645.410755549313	0.419881383154
1	1364	649.341033951031	3.052332165336
1	1366	649.383077702578	1.903273208204
1	1370	650.454346404421	1.340462190055
1	1372	651.804251335278	1.358394413871
1	1376	653.284947273668	0.116452900009
1	1382	657.211374006604	1.825083134649
1	1384	659.663851412457	3.690262460727
1	1388	660.951586977013	0.168916587638
1	1392	664.339372635629	0.790183383474
1	1396	667.58070075649	0.333384177702
1	1400	672.71688082225	1.349564165116
1	1404	672.824956845812	0.028677692114
1	1408	674.77191437304	0.718561407908
1	1414	680.212784560907	1.574142444945
1	1418	681.539817701115	2.201745274889
1	1420	681.654312961733	0.429858372919
1	1426	684.179426239789	1.789402877472
1	1428	684.451025965815	1.934359762498
1	1434	690.338025463244	1.649154418463
1	1436	691.025446739883	1.239608080708
1	1440	691.641803331771	0.1753369245
1	1444	693.609437568475	1.324411920763
1	1450	697.159609077587	1.649806630025
1	1452	698.359925750945	2.844867699159
1	1462	702.765473656265	3.348026587561
1	1464	703.034350095891	2.429570527145
1	1472	705.135319033763	3.170801887015
1	1480	708.59844000095	6.042106014742
1	1486	710.445471418403	7.230268321457
1	1488	710.766423837705	7.232689723308
1	1490	710.841900254831	6.231826039747
1	1492	710.846169737566	4.685617998756
1	1494	711.082685151388	3.902318587044
1	1496	711.720872077247	3.542427161632
1	1498	712.742721902183	3.682106779994
1	1502	713.065526292346	2.771410431936
1	1504	713.66296993698	0.786732294843
1	1516	726.614100009718	2.643318013251
1	1518	727.263009758648	3.120654201351
1	1524	728.297000428969	3.138396048977
1	1532	735.072072596722	9.518990694469
1	1534	735.944601382187	10.381349583713
1	1536	736.363851244403	8.771228428681
1	1540	739.632342146164	11.422042830889
1	1544	742.45374260205	13.582839760714
1	1546	742.556466226566	12.412453078766
1	1548	743.00383376679	12.72872233276
1	1552	747.391832501856	10.129329769434
1	1554	751.790964606958	12.036473748677
1	1558	752.774114522486	9.351719351995
1	1560	753.469234184582	0.85359914944
1	1564	755.186110929911	1.254941646185
1	1568	757.516070395659	0.551352408152
1	1572	760.827901438512	1.245929897404
1	1576	762.949434506954	0.321311090641
1	1584	766.060465940444	2.620153587304
1	1588	767.521058975612	2.5270130045
1	1590	767.522692341744	1.715150195961
1	1594	768.097517371804	0.72836530395
1	1600	770.352232156433	2.429860904136
1	1602	770.703456378749	1.287796901905
1	1604	771.366014133612	1.904234415483
1	1610	773.185887550556	0.433404309381
1	1612	773.657889040197	0.84619721356
1	1624	785.305320365238	3.973651257327
1	1626	785.817828285142	4.304811132031