version 3
run General-15-20221028-09:56:52-16128
attr configname General
attr datetime 20221028-09:56:52
attr datetimef 20221028-095652
attr experiment General
attr inifile simu_1.ini
attr iterationvars ""
attr iterationvarsd ""
attr iterationvarsf ""
attr measurement ""
attr network Rete
attr processid 16128
attr repetition 15
attr replication #15
attr resultdir results
attr runnumber 15
attr seedset 15
config network Rete
config record-eventlog false
config repeat 30
config sim-time-limit 1000s
config simtime-resolution ps
config **.Servente.serviceTime exponential(1s)
config **.Arrivi.interArrivalTime exponential(2s)

vector 0 Rete.Servente queueLength:vector ETV
attr interpolationmode sample-hold
attr recordingmode vector
attr title "queue length"
vector 1 Rete.Pozzo lifeTime:vector ETV
attr interpolationmode none
attr recordingmode vector
attr title "lifetime of arrived jobs"
attr unit s
0	0	0	0
0	12	9.163150931798	1
0	13	9.376559435026	0
0	24	17.85275140717	1
0	25	18.16737861238	0
0	44	28.514476099105	1
0	45	28.755130332423	0
0	48	29.908855678676	1
0	49	30.020176326862	0
0	52	31.509798325865	1
0	53	32.02796743173	0
0	80	51.100242179724	1
0	82	54.568318366857	2
0	84	55.501256459319	3
0	86	56.1011825357	4
0	87	56.727835874093	3
0	89	56.819294861087	2
0	91	57.460750257672	1
0	94	58.959672086177	2
0	96	60.385210179682	3
0	97	60.757591166516	2
0	100	61.024714032347	3
0	102	61.542300488916	4
0	104	61.774125024472	5
0	106	63.072980519046	6
0	107	63.658711976261	5
0	109	64.083658069211	4
0	111	64.236291041191	3
0	114	64.324305875406	4
0	115	64.698858513389	3
0	118	65.870196993767	4
0	119	66.001970253867	3
0	121	66.433546378262	2
0	124	66.58068794177	3
0	125	67.205185440523	2
0	127	68.300685176826	1
0	130	68.379838663372	2
0	132	69.285986319893	3
0	133	70.021535329204	2
0	135	70.997094801565	1
0	137	71.885725570225	0
0	156	80.133659325998	1
0	157	80.367813756692	0
0	192	98.385861248463	1
0	194	98.706921289088	2
0	195	98.810048878237	1
0	197	98.863756912522	0
0	200	99.888095806362	1
0	202	100.719130371856	2
0	204	101.519386931022	3
0	206	102.00280827424	4
0	208	102.43769001648	5
0	209	102.537024347357	4
0	211	103.689183656957	3
0	213	104.312266574729	2
0	215	104.744741467601	1
0	218	105.346627730333	2
0	219	107.345696500038	1
0	221	107.758710656479	0
0	224	108.29500969862	1
0	226	108.517641238996	2
0	227	109.327964386146	1
0	230	109.691164117781	2
0	232	110.317378040947	3
0	233	111.363186977484	2
0	235	111.387381750691	1
0	237	111.632400734231	0
0	260	123.447688939619	1
0	261	123.941792522974	0
0	268	125.652272280016	1
0	269	126.193537247696	0
0	272	127.818914447465	1
0	273	127.929951553149	0
0	280	130.218481514546	1
0	282	131.492747089865	2
0	283	131.612914187263	1
0	285	131.679682926525	0
0	312	156.943789724261	1
0	313	157.622669917224	0
0	316	159.33282606185	1
0	317	159.707453244112	0
0	324	160.184735165406	1
0	325	160.225632804464	0
0	328	160.293523215844	1
0	329	160.57561103522	0
0	336	166.222247489432	1
0	337	167.267519171787	0
0	344	169.07641855098	1
0	345	169.080565171999	0
0	352	171.876811818145	1
0	354	173.152953612247	2
0	356	173.602660180922	3
0	358	173.701780164988	4
0	360	173.705072386939	5
0	361	173.728651709041	4
0	363	173.803087788521	3
0	365	174.967575312632	2
0	367	175.513155422411	1
0	370	175.802814823945	2
0	372	177.184783355435	3
0	374	177.417143889847	4
0	375	178.704196541491	3
0	378	179.122610303235	4
0	379	180.34738189992	3
0	381	180.476398227833	2
0	383	180.700442139049	1
0	385	182.542883762742	0
0	392	183.812335899797	1
0	393	186.061704586507	0
0	412	195.67351319477	1
0	414	196.79259682423	2
0	415	198.729155962373	1
0	418	198.736311186689	2
0	419	201.237558996805	1
0	421	202.414416622521	0
0	436	209.291085829063	1
0	437	209.902159660564	0
0	452	214.424706047452	1
0	453	214.785204813249	0
0	456	215.128467079174	1
0	458	215.130653525905	2
0	459	215.881077903815	1
0	461	216.166980548456	0
0	464	218.009308426088	1
0	465	218.995147539126	0
0	488	232.447114110283	1
0	490	232.496939115309	2
0	492	234.387909003141	3
0	493	236.006930085321	2
0	496	236.542300178126	3
0	497	237.155850940854	2
0	499	237.25701062261	1
0	501	237.510715124784	0
0	524	258.9894249517	1
0	525	259.184072527884	0
0	528	260.298101187422	1
0	529	261.149704407707	0
0	536	263.548574371352	1
0	537	263.780981891553	0
0	540	263.939221503118	1
0	542	264.170575353608	2
0	543	264.255597709336	1
0	545	264.310623801043	0
0	564	276.329688505219	1
0	565	276.502312821718	0
0	576	283.860037573662	1
0	578	284.310236513923	2
0	579	284.803226225614	1
0	581	285.757871985496	0
0	608	308.377953793039	1
0	610	308.779958899082	2
0	611	308.935502726191	1
0	614	309.039018487242	2
0	615	310.159970235061	1
0	617	310.963868698914	0
0	628	327.834316133527	1
0	629	328.203090558808	0
0	640	340.001538416146	1
0	641	340.046942114898	0
0	644	341.757926288144	1
0	645	343.524946710685	0
0	648	343.672398358549	1
0	650	344.407045420134	2
0	652	344.571699977065	3
0	654	346.498604095734	4
0	656	346.907107795145	5
0	657	346.982881244492	4
0	659	349.133052030377	3
0	662	349.891656311054	4
0	663	352.004181714463	3
0	665	352.091627453617	2
0	667	352.274368597685	1
0	669	352.278237314434	0
0	672	352.620829515812	1
0	673	352.855397406414	0
0	676	353.067804332005	1
0	677	353.574185382882	0
0	692	356.169295901111	1
0	694	356.344461286328	2
0	695	359.431348236161	1
0	698	359.794680783966	2
0	699	360.75411798238	1
0	702	360.936951015292	2
0	703	361.411631397187	1
0	706	364.455291617345	2
0	708	364.552699628	3
0	709	364.661914061572	2
0	711	366.130952172931	1
0	713	366.459741879208	0
0	716	367.345056638453	1
0	717	369.829486017004	0
0	728	381.804034488893	1
0	729	382.577304837573	0
0	744	390.197584800332	1
0	745	390.40463795657	0
0	748	391.130190356687	1
0	749	393.41773619576	0
0	756	393.83829417538	1
0	757	393.958592284588	0
0	772	397.758787985013	1
0	773	397.775663392237	0
0	788	403.830180149147	1
0	790	404.127204248587	2
0	791	404.135895882376	1
0	794	404.875548617686	2
0	795	406.294969650037	1
0	797	407.826762539272	0
0	804	410.689773924715	1
0	805	410.760553468753	0
0	820	424.459995800764	1
0	821	425.634064730103	0
0	828	438.292590544423	1
0	830	438.786239501421	2
0	831	439.210792713745	1
0	833	439.448596224855	0
0	836	440.124658003124	1
0	837	441.607982294811	0
0	840	441.790643576476	1
0	842	442.068258374633	2
0	843	442.277540079888	1
0	846	443.432714607301	2
0	847	443.577998488455	1
0	850	443.902691842626	2
0	852	444.510824662776	3
0	853	447.127442451747	2
0	855	448.104150249743	1
0	857	448.292997469741	0
0	864	451.841713009158	1
0	865	452.324001389945	0
0	916	476.65957196829	1
0	917	476.946951253695	0
0	920	476.965288616019	1
0	921	477.102938909413	0
0	924	477.417014850043	1
0	926	477.467888224636	2
0	928	477.500017782671	3
0	929	479.933756950708	2
0	931	481.235318676682	1
0	933	482.114548910425	0
0	936	482.483006448347	1
0	938	483.429142366936	2
0	939	484.070259752095	1
0	941	487.254332946868	0
0	944	487.552584560733	1
0	945	488.005970929267	0
0	976	508.608644138963	1
0	977	509.162605877061	0
0	984	516.606891667475	1
0	985	518.400168408838	0
0	992	519.561527051586	1
0	993	519.93625122361	0
0	1000	523.260820294999	1
0	1001	524.779281073401	0
0	1016	533.068246049114	1
0	1018	533.569046870622	2
0	1019	534.133741642442	1
0	1022	534.316191284136	2
0	1023	534.470346186006	1
0	1025	534.870178660972	0
0	1032	536.60333937765	1
0	1034	537.774517392915	2
0	1035	538.026204757162	1
0	1037	538.408951786957	0
0	1052	543.557874791411	1
0	1053	544.000444928585	0
0	1060	548.877660157437	1
0	1061	550.902484967718	0
0	1076	560.063488313184	1
0	1077	561.819927933884	0
0	1080	562.610148563985	1
0	1082	562.846680783717	2
0	1083	562.978191045981	1
0	1085	563.262616759694	0
0	1088	563.620647711878	1
0	1089	564.369471768684	0
0	1092	565.249445148691	1
0	1093	567.182976304141	0
0	1096	567.32664194499	1
0	1097	568.861572149822	0
0	1108	574.375254149238	1
0	1109	575.604627611743	0
0	1116	578.8669741523	1
0	1117	580.511567668432	0
0	1120	580.718420284029	1
0	1122	580.732300176019	2
0	1123	581.153788590243	1
0	1125	581.403440035706	0
0	1152	588.947720916257	1
0	1153	589.501173317473	0
0	1156	592.745268561902	1
0	1157	592.769453534361	0
0	1160	592.90584888889	1
0	1161	593.05806532091	0
0	1164	593.118878214549	1
0	1166	593.591038309386	2
0	1168	594.880363031228	3
0	1169	595.793017241928	2
0	1172	596.890477894272	3
0	1173	596.939830224583	2
0	1175	596.983139011836	1
0	1177	597.938733386987	0
0	1180	598.065387954397	1
0	1182	600.462545476731	2
0	1184	600.957213754727	3
0	1185	601.201507838609	2
0	1187	601.506237511825	1
0	1189	601.72074025407	0
0	1196	605.410202433388	1
0	1197	605.710205560502	0
0	1200	607.338619719856	1
0	1202	607.82680622125	2
0	1204	610.290885215255	3
0	1205	610.542667775926	2
0	1207	611.076717219022	1
0	1209	611.722504300291	0
0	1216	614.694672924869	1
0	1218	614.803751491985	2
0	1219	615.00563624536	1
0	1221	615.766406566973	0
0	1248	635.458549458264	1
0	1250	635.522269826186	2
0	1251	635.874861155917	1
0	1254	636.261191587384	2
0	1256	636.782377274599	3
0	1257	636.858118855722	2
0	1259	636.921245750794	1
0	1262	637.316389438312	2
0	1263	638.416810446256	1
0	1266	638.580583050703	2
0	1268	638.628677587885	3
0	1269	638.712492813526	2
0	1271	639.978914931685	1
0	1273	640.296074321928	0
0	1280	641.633785150202	1
0	1281	642.072700179911	0
0	1284	642.347078072018	1
0	1285	643.969638864214	0
0	1292	649.351570838656	1
0	1294	649.931766949907	2
0	1295	653.639623909726	1
0	1297	654.880448081048	0
0	1300	655.033650819844	1
0	1301	655.66756581068	0
0	1308	658.489424331148	1
0	1309	658.783004913167	0
0	1328	666.522342081161	1
0	1330	666.768205212104	2
0	1331	666.806643108789	1
0	1334	667.355957563937	2
0	1335	667.621518112456	1
0	1338	668.372102227917	2
0	1340	668.901084603262	3
0	1341	669.025865412597	2
0	1343	669.973373945527	1
0	1345	670.043370159012	0
0	1348	671.603875402778	1
0	1349	671.811945813369	0
0	1352	674.102030787903	1
0	1354	674.396876377193	2
0	1355	674.398099442758	1
0	1358	674.719236398031	2
0	1359	676.763220677994	1
0	1361	677.151064400168	0
0	1420	712.638746111712	1
0	1421	712.719329670374	0
0	1428	715.583236196914	1
0	1430	715.595891415631	2
0	1431	715.66105895476	1
0	1434	715.897717315885	2
0	1435	716.2462521769	1
0	1438	716.44356785452	2
0	1440	717.228417090128	3
0	1441	717.522273640128	2
0	1444	718.104779248776	3
0	1446	718.261383805312	4
0	1447	718.724212144708	3
0	1450	718.796999651077	4
0	1452	719.939079401799	5
0	1453	720.421494956475	4
0	1456	722.729986627995	5
0	1457	723.504411186161	4
0	1459	726.787437907649	3
0	1461	728.460722863477	2
0	1463	728.782024722774	1
0	1465	729.119889800921	0
0	1468	729.192193891852	1
0	1469	730.570130130317	0
0	1492	752.390927217297	1
0	1493	753.02033218376	0
0	1496	754.02384709074	1
0	1497	754.502639275063	0
0	1524	766.545059929974	1
0	1525	766.630027119076	0
0	1532	770.051208275386	1
0	1533	772.238023552547	0
0	1540	774.614225884682	1
0	1542	775.176958790248	2
0	1543	775.442938798515	1
0	1545	776.632868902243	0
0	1548	777.300642419352	1
0	1550	777.682657173466	2
0	1552	778.052974648882	3
0	1553	778.097939338137	2
0	1556	778.855787634037	3
0	1557	779.229578503789	2
0	1559	779.921997780345	1
0	1561	780.207518162039	0
0	1572	788.310034440196	1
0	1573	790.06146310247	0
0	1576	790.719856764559	1
0	1577	791.117341513482	0
0	1592	797.626265110453	1
0	1593	800.031132697108	0
0	1600	802.750376529996	1
0	1601	803.094809493485	0
0	1636	812.260523338186	1
0	1638	812.371297154838	2
0	1640	812.602464511223	3
0	1641	813.299762409022	2
0	1644	815.007655352471	3
0	1645	815.034737875333	2
0	1647	815.239724050665	1
0	1650	817.047243718067	2
0	1651	817.553808866035	1
0	1654	817.646989429652	2
0	1655	819.151456755702	1
0	1657	820.303654520404	0
0	1672	829.347305111909	1
0	1673	829.719294188159	0
0	1676	830.290693833952	1
0	1677	831.320993815115	0
0	1704	847.71477802849	1
0	1706	847.812614806398	2
0	1707	847.970024973879	1
0	1709	852.197787240393	0
0	1712	853.22395244777	1
0	1714	854.771970132507	2
0	1716	854.779759411493	3
0	1717	854.958544502403	2
0	1719	855.027228732229	1
0	1721	855.422167978075	0
0	1728	857.172311964038	1
0	1729	857.922163426187	0
0	1772	892.787404021613	1
0	1773	893.085951680927	0
0	1800	909.639633001196	1
0	1802	910.911556143343	2
0	1803	910.921336992984	1
0	1805	911.068099727709	0
0	1812	914.655255159559	1
0	1813	914.971793389515	0
0	1816	918.560219241789	1
0	1817	919.342580396169	0
0	1820	919.52792615326	1
0	1821	920.401921657316	0
0	1888	980.785592932354	1
0	1890	981.969167510826	2
0	1891	982.229506227353	1
0	1894	982.337029468161	2
0	1895	983.312871404576	1
0	1898	983.374766214695	2
0	1899	983.70070680962	1
0	1902	985.175883605276	2
0	1903	985.341040076136	1
0	1905	985.495737063725	0
0	1912	988.314045559598	1
0	1913	988.903620693091	0
0	1920	991.026280347147	1
0	1921	991.517352402062	0
0	1936	996.159618067355	1
0	1937	996.390633522259	0
1	4	3.975643088845	0.197105409366
1	8	7.193945424861	0.055896735915
1	14	9.376559435026	0.448693819118
1	16	9.698696209813	0.535545278015
1	20	13.332405338753	0.755023072787
1	26	18.16737861238	0.36516648539
1	28	18.530466011877	0.677714604707
1	32	21.426539355244	0.118492229114
1	36	24.140990982188	0.287547424691
1	40	26.826767009732	2.496532771058
1	46	28.755130332423	0.306724705221
1	50	30.020176326862	1.505700227757
1	54	32.02796743173	2.119111753054
1	56	33.673444431113	2.163646105248
1	60	40.07293936183	0.236419517257
1	64	41.117248397674	0.183013429195
1	68	44.568116968106	0.047832334109
1	72	47.008289128092	0.040220420135
1	76	50.171664357581	0.223432110798
1	88	56.727835874093	6.531651343333
1	90	56.819294861087	5.719052681363
1	92	57.460750257672	2.892431890815
1	98	60.757591166516	5.256334707197
1	108	63.658711976261	7.557529440561
1	110	64.083658069211	5.123985983034
1	112	64.236291041191	3.851080861509
1	116	64.698858513389	3.674144481042
1	120	66.001970253867	4.459669764951
1	122	66.433546378262	4.65942135379
1	126	67.205185440523	4.132204921477
1	128	68.300685176826	3.97637930142
1	134	70.021535329204	4.151338335437
1	136	70.997094801565	4.416406859795
1	138	71.885725570225	3.505886906853
1	140	72.914974725877	3.628988405984
1	144	73.723606111845	0.544695829173
1	148	77.200305098544	0.516244334235
1	152	79.552453330106	0.494985624887
1	158	80.367813756692	0.521195066052
1	160	80.450832500716	0.317173174718
1	164	83.903648945113	0.058510007855
1	168	86.108238199268	0.081569018664
1	172	89.857652484461	1.189668310545
1	176	90.47545700127	0.02959253123
1	180	91.496245418843	0.692132532928
1	184	92.2678802009	0.142294611736
1	188	94.770017074428	0.031238519706
1	196	98.810048878237	1.020234009411
1	198	98.863756912522	0.477895664059
1	210	102.537024347357	3.830103058269
1	212	103.689183656957	3.801087850595
1	214	104.312266574729	3.593136202873
1	216	104.744741467601	3.225354536579
1	220	107.345696500038	5.342888225798
1	222	107.758710656479	5.321020639999
1	228	109.327964386146	3.981336655813
1	234	111.363186977484	3.068177278864
1	236	111.387381750691	2.869740511695
1	238	111.632400734231	1.94123661645
1	240	112.096553616298	1.779175575351
1	244	113.816546291192	0.102842442306
1	248	115.75535835232	1.300199406623
1	252	117.020548731687	0.615157824993
1	256	118.688662737494	0.735004037256
1	262	123.941792522974	1.153815449937
1	264	124.495682748974	1.047993809355
1	270	126.193537247696	0.925011278252
1	274	127.929951553149	2.277679273133
1	276	128.531196653964	0.712282206499
1	284	131.612914187263	2.188767275627
1	286	131.679682926525	1.461201411979
1	288	131.7926530412	0.299905951335
1	292	132.002777350999	0.012082828297
1	296	136.388974735205	2.500321628273
1	300	137.883888290197	1.012158150369
1	304	143.777842733881	0.248156330483
1	308	155.012121594317	0.793083391659
1	314	157.622669917224	2.535774781703
1	318	159.707453244112	2.763663519851
1	320	159.843951502791	0.511125440941
1	326	160.225632804464	0.3619082455
1	330	160.57561103522	0.390875869814
1	332	161.417501974858	1.123978759014
1	338	167.267519171787	1.360313320993
1	340	167.668019408464	1.445771919032
1	346	169.080565171999	0.936116745047
1	348	169.805565016392	0.729146465412
1	362	173.728651709041	2.523240813596
1	364	173.803087788521	1.926275970376
1	366	174.967575312632	1.814621700385
1	368	175.513155422411	1.910495241489
1	376	178.704196541491	5.002416376503
1	380	180.34738189992	6.642309512981
1	382	180.476398227833	4.673583403888
1	384	180.700442139049	3.515658783614
1	386	182.542883762742	5.125739872895
1	388	183.089644138257	3.967033835022
1	394	186.061704586507	2.692334429001
1	396	186.513146821775	2.700810921978
1	400	188.779816208202	0.015117854195
1	404	192.511615964347	2.299862905551
1	408	194.158098830956	0.955551887178
1	416	198.729155962373	3.538463935754
1	420	201.237558996805	5.564045802035
1	422	202.414416622521	5.621819798291
1	424	203.328309399422	4.591998212733
1	428	204.392258771539	0.149984536421
1	432	207.635618282157	1.134368150229
1	438	209.902159660564	0.790405157753
1	440	209.911245195537	0.620159366474
1	444	212.885560351309	1.490634238407
1	448	213.402724666521	0.129453438022
1	454	214.785204813249	0.728554985985
1	460	215.881077903815	1.456371856363
1	462	216.166980548456	1.038513469282
1	466	218.995147539126	3.864494013221
1	468	219.127522532656	1.118214106568
1	472	220.571703691997	0.235716931818
1	476	221.22846850531	0.454709502002
1	480	225.077530359035	0.512975428766
1	484	229.340900902643	0.891611443169
1	494	236.006930085321	5.101880227334
1	498	237.155850940854	4.708736830571
1	500	237.25701062261	4.760071507301
1	502	237.510715124784	3.122806121643
1	504	238.079914619342	1.537614441216
1	508	241.153868342098	0.138295518951
1	512	243.412913243748	0.242585537847
1	516	247.081034841482	1.897559703677
1	520	248.901239760211	0.462018394173
1	526	259.184072527884	0.259046002373
1	530	261.149704407707	2.160279456007
1	532	261.776597253708	1.478496066286
1	538	263.780981891553	1.133567077654
1	544	264.255597709336	0.707023337984
1	546	264.310623801043	0.371402297925
1	548	264.76478523801	0.594209884402
1	552	267.49308833468	0.801895359823
1	556	269.125911050743	0.882538536086
1	560	270.418229086683	0.122606547107
1	566	276.502312821718	0.173800856315
1	568	277.870524584755	1.540836079536
1	572	283.802244294437	0.639306358112
1	580	284.803226225614	0.994800875585
1	582	285.757871985496	1.897834411834
1	584	285.826152022427	1.515915508504
1	588	288.009567913751	0.35655911514
1	592	291.131606903237	0.977055186177
1	596	299.406931615181	0.679614235052
1	600	301.510107705382	1.55693905732
1	604	304.371744992794	1.825046988285
1	612	308.935502726191	1.432450018658
1	616	310.159970235061	1.782016442022
1	618	310.963868698914	2.183909799832
1	620	312.957567332526	3.918548845284
1	624	316.139627539382	0.104572557442
1	630	328.203090558808	0.419546285296
1	632	328.239886346894	0.405570213367
1	636	334.90675716767	0.883922487657
1	642	340.046942114898	1.59645010427
1	646	343.524946710685	3.523408294539
1	658	346.982881244492	5.224954956348
1	660	349.133052030377	5.460653671828
1	664	352.004181714463	7.597136294329
1	666	352.091627453617	7.519927476552
1	668	352.274368597685	5.775764501951
1	670	352.278237314434	5.371129519289
1	674	352.855397406414	2.96374109536
1	678	353.574185382882	0.95335586707
1	680	353.819295516036	0.751491184031
1	684	354.44579985976	0.107188219077
1	688	354.86638699296	0.286302925239
1	696	359.431348236161	3.399568390837
1	700	360.75411798238	4.584822081269
1	704	361.411631397187	5.067170110859
1	710	364.661914061572	4.867233277606
1	712	366.130952172931	5.194001157639
1	714	366.459741879208	2.004450261863
1	718	369.829486017004	5.276786389004
1	720	369.860845763471	2.515789125018
1	724	374.08471374158	0.893785913335
1	730	382.577304837573	1.379659714672
1	732	382.798488487546	0.994453998653
1	736	383.859160132423	0.601965548707
1	740	384.312433432653	0.29138094414
1	746	390.40463795657	1.699671542371
1	750	393.41773619576	3.220151395428
1	752	393.721883207962	2.591692851275
1	758	393.958592284588	0.142997485036
1	760	394.142361454095	0.304067278715
1	764	395.262224078045	0.528308703283
1	768	396.918034478666	0.662059693796
1	774	397.775663392237	0.157930936662
1	776	399.039929511984	1.281141526971
1	780	399.508856427383	0.461803963105
1	784	401.136694094533	0.172624928389
1	792	404.135895882376	0.923940362335
1	796	406.294969650037	2.46478950089
1	798	407.826762539272	3.699558290685
1	800	409.292957576636	4.41740895895
1	806	410.760553468753	0.778323205674
1	808	411.072889302124	0.383115377409
1	812	413.588291141134	1.320621676959
1	816	416.242603933825	0.007358520025
1	822	425.634064730103	2.264235368303
1	824	425.868783928881	1.408788128117
1	832	439.210792713745	1.840887730489
1	834	439.448596224855	1.156005680432
1	838	441.607982294811	2.82174279339
1	844	442.277540079888	2.152882076764
1	848	443.577998488455	1.787354911979
1	854	447.127442451747	5.059184077114
1	856	448.104150249743	4.671435642442
1	858	448.292997469741	4.390305627115
1	860	448.90029861471	4.389473951934
1	866	452.324001389945	2.395231357297
1	868	453.133665186595	1.291952177437
1	872	454.58406455442	1.214356112002
1	876	456.181693961114	0.229658416706
1	880	458.728337633512	0.307172524691
1	884	460.738454272617	0.539522368841
1	888	462.41008012027	0.026471161861
1	892	464.701838559499	1.234527966751
1	896	467.952961097373	0.544344953298
1	900	470.53080824335	0.020246227419
1	904	473.482474257357	1.13289700103
1	908	475.834268103729	0.454033852505
1	912	476.214520566391	0.255343373889
1	918	476.946951253695	0.711313197508
1	922	477.102938909413	0.443366941123
1	930	479.933756950708	2.968468334689
1	932	481.235318676682	3.818303826639
1	934	482.114548910425	4.646660685789
1	940	484.070259752095	6.570241969424
1	942	487.254332946868	4.771326498521
1	946	488.005970929267	4.576828562331
1	948	488.530913695637	0.978329134904
1	952	492.146385612667	1.356924223494
1	956	494.368720168929	1.61153887452
1	960	495.45238457834	0.314002137032
1	964	499.083650476878	0.306778194347
1	968	503.208756314992	0.284703525639
1	972	505.486071562715	1.967036963037
1	978	509.162605877061	2.947888088756
1	980	509.32985519376	0.721211054797
1	986	518.400168408838	2.907525950005
1	988	519.099976900469	2.493085232994
1	994	519.93625122361	0.389108989386
1	996	521.363187873463	1.801660821877
1	1002	524.779281073401	2.596669364723
1	1004	525.081085658157	1.820265363158
1	1008	527.250724619184	0.086194293641
1	1012	530.49142459468	0.055014011879
1	1020	534.133741642442	1.635403940799
1	1024	534.470346186006	1.402100136892
1	1026	534.870178660972	1.30113179035
1	1028	535.058220335861	0.742029051725
1	1036	538.026204757162	1.609992466434
1	1038	538.408951786957	1.805612409307
1	1040	538.471260436757	0.696743043842
1	1044	539.72695628137	0.922408957949
1	1048	542.954158108286	0.191497983471
1	1054	544.000444928585	0.561354316825
1	1056	544.542527324843	0.984652533432
1	1062	550.902484967718	2.634745246467
1	1064	553.538670344767	4.66101018733
1	1068	555.108921553012	0.373324959378
1	1072	555.632679943345	0.288539453486
1	1078	561.819927933884	2.045157261364
1	1084	562.978191045981	2.914702732797
1	1086	563.262616759694	0.652468195709
1	1090	564.369471768684	1.522790984967
1	1094	567.182976304141	3.562328592263
1	1098	568.861572149822	3.612127001131
1	1100	568.920471347206	1.593829402216
1	1104	573.21937069185	3.843569133725
1	1110	575.604627611743	2.309802243157
1	1112	576.103400157899	1.728146008661
1	1118	580.511567668432	2.220392737822
1	1124	581.153788590243	2.286814437943
1	1126	581.403440035706	0.685019751677
1	1128	583.1633225311	2.431022355081
1	1132	583.729159340466	0.145127807961
1	1136	584.275704896341	0.40355912544
1	1140	584.90628668874	0.043697838867
1	1144	586.684257885098	0.071977981632
1	1148	587.718833616581	0.959693770176
1	1154	589.501173317473	0.897204281399
1	1158	592.769453534361	3.821732618104
1	1162	593.05806532091	0.312796759008
1	1170	595.793017241928	2.887168353038
1	1174	596.939830224583	3.820952010034
1	1176	596.983139011836	3.39210070245
1	1178	597.938733386987	3.058370355759
1	1186	601.201507838609	4.311029944337
1	1188	601.506237511825	3.440849557428
1	1190	601.72074025407	1.258194777339
1	1192	603.199018485439	2.241804730712
1	1198	605.710205560502	2.071918068946
1	1206	610.542667775926	5.132465342538
1	1208	611.076717219022	3.738097499166
1	1210	611.722504300291	3.895698079041
1	1212	611.723949953183	1.433064737928
1	1220	615.00563624536	2.703537044056
1	1222	615.766406566973	1.071733642104
1	1224	615.840257967959	1.036506475974
1	1228	619.001175374524	0.270519296316
1	1232	621.702163703329	1.332368463037
1	1236	624.003233854397	0.301487401103
1	1240	628.010645891119	0.183585888605
1	1244	632.301016168937	3.676347855102
1	1252	635.874861155917	0.497044051192
1	1258	636.858118855722	1.399569397458
1	1260	636.921245750794	1.398975924608
1	1264	638.416810446256	2.155618858872
1	1270	638.712492813526	1.930115538927
1	1272	639.978914931685	2.662525493373
1	1274	640.296074321928	1.715491271225
1	1276	640.755942015404	2.127264427519
1	1282	642.072700179911	0.80137781411
1	1286	643.969638864214	2.335853714012
1	1288	644.726189719259	2.379111647241
1	1296	653.639623909726	5.538284375751
1	1298	654.880448081048	5.528877242392
1	1302	655.66756581068	5.735798860773
1	1304	656.858364064798	1.824713244954
1	1310	658.783004913167	1.774424063011
1	1312	659.031019323461	0.541594992313
1	1316	661.135472623587	0.576440126708
1	1320	665.395061723478	2.156636904503
1	1324	665.47167033695	0.051166206881
1	1332	666.806643108789	0.769737445132
1	1336	667.621518112456	1.099176031295
1	1342	669.025865412597	2.257660200493
1	1344	669.973373945527	2.61741638159
1	1346	670.043370159012	1.671267931095
1	1350	671.811945813369	2.910861210107
1	1356	674.398099442758	2.79422403998
1	1360	676.763220677994	2.661189890091
1	1362	677.151064400168	2.754188022975
1	1364	678.631091938692	3.911855540661
1	1368	681.136334477811	1.513810064639
1	1372	682.872405518498	1.516388378214
1	1376	684.371378551804	0.318076901644
1	1380	686.535136189669	0.382311718517
1	1384	693.480434327152	0.612940908767
1	1388	695.088460326347	0.086652656174
1	1392	697.045233916631	0.719302790775
1	1396	699.424448131888	1.046701265089
1	1400	700.585218959951	0.177289709608
1	1404	700.983324181432	0.059407911333
1	1408	703.980440121157	2.110243026804
1	1412	705.844727091514	0.753161109556
1	1416	707.805698551757	0.330509682261
1	1422	712.719329670374	1.514331303549
1	1424	713.459333303345	0.820587191633
1	1432	715.66105895476	0.656094652504
1	1436	716.2462521769	0.663015979986
1	1442	717.522273640128	1.926382224497
1	1448	718.724212144708	2.826494828823
1	1454	720.421494956475	3.977927101955
1	1458	723.504411186161	6.275994096033
1	1460	726.787437907649	8.682658658873
1	1462	728.460722863477	10.199339058165
1	1464	728.782024722774	9.985025071697
1	1466	729.119889800921	9.180810399122
1	1470	730.570130130317	7.840143502322
1	1472	733.264461779705	4.072267887853
1	1476	736.720767508718	0.746673625111
1	1480	738.764794397406	1.00649782299
1	1484	740.541322385571	0.664926146702
1	1488	744.999487930257	0.297439282301
1	1494	753.02033218376	0.6411050969
1	1498	754.502639275063	2.111712057766
1	1500	755.899806490963	1.875959400223
1	1504	757.409965910263	0.296589159085
1	1508	758.851511973973	1.409907075186
1	1512	760.918987758612	0.451982521831
1	1516	761.457050909504	0.075240522609
1	1520	763.299469211825	1.650365746006
1	1526	766.630027119076	2.756634059081
1	1528	766.727594134358	0.182534204384
1	1534	772.238023552547	4.728135170187
1	1536	772.702526251311	2.651317975925
1	1544	775.442938798515	2.284107529126
1	1546	776.632868902243	2.018643017561
1	1554	778.097939338137	2.920980547889
1	1558	779.229578503789	1.928936084437
1	1560	779.921997780345	2.239340606879
1	1562	780.207518162039	2.154543513157
1	1564	780.601489128972	1.745701494935
1	1568	786.196163402717	0.172423886002
1	1574	790.06146310247	2.425087566378
1	1578	791.117341513482	2.807307073286
1	1580	792.504666337286	1.784809572727
1	1584	793.725732922511	1.129768162136
1	1588	794.809528254273	0.223049759539
1	1594	800.031132697108	3.482863534827
1	1596	800.540738257788	2.914473147335
1	1602	803.094809493485	0.432369906982
1	1604	803.486856063596	0.7364795336
1	1608	806.352855803612	1.881737299865
1	1612	806.956841130115	0.483914255346
1	1616	808.881037729152	0.662815866413
1	1620	808.951141752273	0.028317828247
1	1624	810.465823264359	0.133508907823
1	1628	810.622472972566	0.050914409106
1	1632	811.700335935668	0.445207888129
1	1642	813.299762409022	1.517297515497
1	1646	815.034737875333	2.774214537147
1	1648	815.239724050665	2.868426895827
1	1652	817.553808866035	4.951344354812
1	1656	819.151456755702	4.143801403231
1	1658	820.303654520404	3.256410802337
1	1660	820.319834807238	2.672845377586
1	1664	821.030512887819	0.004441348536
1	1668	825.64161814284	2.019632110646
1	1674	829.719294188159	0.418956846334
1	1678	831.320993815115	1.973688703206
1	1680	831.335211965066	1.044518131114
1	1684	836.03688957091	0.990499278097
1	1688	840.445668102914	1.446722888389
1	1692	841.591349470066	0.007746397812
1	1696	842.851634057664	0.48707772563
1	1700	843.879304093302	0.318455631135
1	1708	847.970024973879	1.348370964433
1	1710	852.197787240393	4.483009211903
1	1718	854.958544502403	7.145929696005
1	1720	855.027228732229	1.803276284459
1	1722	855.422167978075	0.650197845568
1	1724	855.443577490059	0.663818078566
1	1730	857.922163426187	1.657989426606
1	1732	858.932021683412	1.759709719374
1	1736	866.007439670288	0.075328170263
1	1740	867.27162020514	1.085099405445
1	1744	871.297237278674	0.724465382791
1	1748	874.091431148861	0.378343702941
1	1752	879.911561213992	1.265174817355
1	1756	887.356649207944	1.977259886847
1	1760	888.228139664259	0.001531749026
1	1764	889.744540264316	0.07509457688
1	1768	890.848665171642	0.177728419031
1	1774	893.085951680927	1.331078197021
1	1776	893.451966547182	0.664562525569
1	1780	894.615301894558	0.812758032447
1	1784	899.268442926396	2.581638506439
1	1788	901.062265640851	0.260025071736
1	1792	907.044226442117	0.527462966777
1	1796	907.693097832534	0.55571591687
1	1804	910.921336992984	1.371458875209
1	1806	911.068099727709	1.428466726513
1	1808	912.29030212449	1.378745981147