version 3
run General-22-20221028-09:56:52-16128
attr configname General
attr datetime 20221028-09:56:52
attr datetimef 20221028-095652
attr experiment General
attr inifile simu_1.ini
attr iterationvars ""
attr iterationvarsd ""
attr iterationvarsf ""
attr measurement ""
attr network Rete
attr processid 16128
attr repetition 22
attr replication #22
attr resultdir results
attr runnumber 22
attr seedset 22
config network Rete
config record-eventlog false
config repeat 30
config sim-time-limit 1000s
config simtime-resolution ps
config **.Servente.serviceTime exponential(1s)
config **.Arrivi.interArrivalTime exponential(2s)

vector 0 Rete.Servente queueLength:vector ETV
attr interpolationmode sample-hold
attr recordingmode vector
attr title "queue length"
vector 1 Rete.Pozzo lifeTime:vector ETV
attr interpolationmode none
attr recordingmode vector
attr title "lifetime of arrived jobs"
attr unit s
0	0	0	0
0	28	19.330267220844	1
0	30	19.353191270264	2
0	32	19.851151478955	3
0	33	19.970003262673	2
0	36	21.098594249924	3
0	37	21.641055552339	2
0	39	21.651638226628	1
0	41	21.818460089986	0
0	48	24.575715301589	1
0	50	24.762073909846	2
0	51	26.020241465902	1
0	54	27.495844126313	2
0	56	27.915093214516	3
0	57	28.053901454099	2
0	59	28.060061252615	1
0	61	28.198088419087	0
0	64	29.0821492484	1
0	65	29.676690513466	0
0	68	29.918064080381	1
0	70	30.962489514106	2
0	71	32.842788100432	1
0	73	32.843053917293	0
0	92	49.049755109046	1
0	94	49.252393390818	2
0	95	49.889811819594	1
0	98	50.368071450733	2
0	99	52.064905422092	1
0	102	52.123604488632	2
0	103	52.57314970475	1
0	106	54.549197824797	2
0	108	54.786528802531	3
0	109	55.657103762452	2
0	112	57.514785141706	3
0	113	58.224565321292	2
0	116	60.521076487928	3
0	117	62.724139065621	2
0	119	63.855514570162	1
0	122	65.792164384125	2
0	123	66.67372630896	1
0	125	67.466818338774	0
0	136	72.6214520484	1
0	137	72.624497143084	0
0	140	72.912285026825	1
0	141	73.990722548167	0
0	156	82.325235290053	1
0	157	82.625569329842	0
0	204	109.317830533906	1
0	205	110.271346758662	0
0	208	110.706785396043	1
0	209	111.206346069118	0
0	216	112.947476213295	1
0	218	116.007435772446	2
0	219	116.922738151859	1
0	222	118.475993347428	2
0	224	118.969663367473	3
0	225	119.170445550808	2
0	227	119.35375354588	1
0	230	119.999451606449	2
0	231	121.207070305919	1
0	234	121.547148873749	2
0	236	122.299216225834	3
0	237	122.495458305588	2
0	240	122.519675056252	3
0	241	124.920629104074	2
0	243	125.010833592563	1
0	245	125.466103472778	0
0	248	125.520907858014	1
0	249	125.843089043146	0
0	264	134.297212435591	1
0	265	134.832532032937	0
0	284	144.865953270149	1
0	285	145.664056506989	0
0	288	145.952701164373	1
0	289	148.507520690655	0
0	296	149.666696799949	1
0	298	149.724814531503	2
0	300	150.083341394206	3
0	301	150.542086097874	2
0	303	151.381722242778	1
0	305	154.294102826392	0
0	316	157.511397745086	1
0	317	157.884167136059	0
0	328	162.367183024769	1
0	329	162.675173553204	0
0	336	165.070529224325	1
0	338	165.323351928704	2
0	339	165.783988732171	1
0	341	165.876773473129	0
0	344	165.903616779045	1
0	346	167.393236622439	2
0	347	167.857911613959	1
0	349	168.356540517395	0
0	352	169.41002779179	1
0	353	169.55129982753	0
0	360	170.001584198535	1
0	361	170.741398565366	0
0	364	171.953528129185	1
0	365	178.038379757792	0
0	384	187.978109832024	1
0	385	189.314003474679	0
0	388	189.665804370078	1
0	389	190.962556785616	0
0	408	198.744523385654	1
0	409	198.848103623427	0
0	412	198.968971446044	1
0	413	199.074286323259	0
0	416	199.174760993873	1
0	417	201.131492393221	0
0	424	205.606054966885	1
0	426	206.838129795524	2
0	428	206.89643676476	3
0	429	207.150402885271	2
0	431	208.368801322244	1
0	433	208.66349677433	0
0	452	215.387483610371	1
0	454	216.591171676382	2
0	455	217.426171956075	1
0	457	217.875599396976	0
0	460	219.216828946865	1
0	461	220.057685472502	0
0	468	226.108705455772	1
0	469	226.843795374352	0
0	476	228.784419724773	1
0	477	229.179505193914	0
0	480	229.521719218327	1
0	481	230.012829873748	0
0	488	232.604535982347	1
0	490	232.673994215695	2
0	492	233.535792145786	3
0	493	234.267228473759	2
0	495	235.041371715047	1
0	498	236.889789614961	2
0	500	236.904662511283	3
0	501	237.014056787139	2
0	503	237.064251178169	1
0	505	237.55253038248	0
0	508	238.024751887858	1
0	510	239.103955801681	2
0	512	239.580731259953	3
0	514	240.254290506905	4
0	515	240.2601076455	3
0	517	241.933814040681	2
0	519	242.441403494003	1
0	522	242.835100608215	2
0	523	244.019787715111	1
0	526	245.499324683909	2
0	527	245.647230676543	1
0	529	246.053067627387	0
0	532	247.605480502496	1
0	534	247.945573421709	2
0	535	248.643805917703	1
0	537	249.067099255341	0
0	548	251.126337111302	1
0	550	251.884132027519	2
0	551	252.03445559129	1
0	553	252.484883432973	0
0	556	253.086284960125	1
0	557	253.41293061792	0
0	560	255.072024945477	1
0	561	255.40587196859	0
0	564	255.977308436945	1
0	566	256.049801793284	2
0	567	256.099782373265	1
0	569	256.741691686611	0
0	584	269.225032868007	1
0	586	269.333290153258	2
0	588	270.761553427598	3
0	589	270.983780683664	2
0	591	271.010860963923	1
0	593	272.920510523374	0
0	600	275.407000992327	1
0	602	275.466818545296	2
0	604	275.538605359176	3
0	606	275.545859131069	4
0	608	276.821510503885	5
0	610	277.53019929213	6
0	611	277.536051896998	5
0	614	277.694532655856	6
0	616	279.246959395865	7
0	618	279.369190685011	8
0	619	280.992203737803	7
0	621	281.538435627193	6
0	623	281.591798533212	5
0	626	281.744988463829	6
0	627	286.997509012966	5
0	630	287.324288455811	6
0	631	287.364775024352	5
0	634	288.451628154718	6
0	635	292.666545565982	5
0	637	292.700450935879	4
0	639	293.172846704882	3
0	641	295.142120802327	2
0	644	295.571798126887	3
0	645	296.006019487068	2
0	647	296.330435810336	1
0	650	298.953121180192	2
0	652	299.347379370119	3
0	653	299.473602886695	2
0	655	300.190334567809	1
0	658	300.785766701344	2
0	659	301.409967989239	1
0	661	303.261819068155	0
0	668	313.337866035989	1
0	669	313.452977251121	0
0	688	319.317240168749	1
0	690	319.341043865895	2
0	692	320.389218272553	3
0	693	320.692506094399	2
0	696	320.98045706371	3
0	697	320.995265515231	2
0	700	323.689993061228	3
0	701	327.275492515937	2
0	703	328.87771266126	1
0	705	329.386161086763	0
0	712	330.835949527146	1
0	713	331.048220341247	0
0	732	347.770631199457	1
0	733	348.426717069497	0
0	740	355.977439642987	1
0	741	356.845526949905	0
0	744	356.897164115788	1
0	745	357.366191429481	0
0	748	357.451012189707	1
0	750	358.473066314098	2
0	751	358.864261072781	1
0	753	359.250047118725	0
0	756	359.45550531215	1
0	758	359.570599629016	2
0	760	359.972364511951	3
0	761	360.339255195274	2
0	763	362.220475538461	1
0	766	362.964509279375	2
0	767	364.043697058363	1
0	769	364.912643564867	0
0	800	380.245150976423	1
0	802	383.029922821641	2
0	803	383.298040358355	1
0	805	384.090854524625	0
0	812	386.757670542403	1
0	813	387.882295556165	0
0	816	388.753802789884	1
0	817	389.384643620553	0
0	824	394.328225334195	1
0	825	394.457933365752	0
0	844	404.796355821884	1
0	846	408.589242005716	2
0	847	410.250306279621	1
0	849	410.633545917342	0
0	868	419.093832607794	1
0	869	419.243397495128	0
0	896	436.772770731427	1
0	897	436.804962674822	0
0	908	440.252525879543	1
0	909	441.631159352404	0
0	912	442.676468301343	1
0	913	442.917215133094	0
0	932	453.697050895226	1
0	933	453.804690012637	0
0	940	457.846845806117	1
0	941	458.284434179028	0
0	956	480.29687751976	1
0	957	480.841855105119	0
0	964	483.175431341028	1
0	965	483.375287970512	0
0	980	493.687076101517	1
0	981	495.533745293405	0
0	988	498.598716003348	1
0	989	498.722120203808	0
0	992	499.757498973605	1
0	993	500.208611931262	0
0	1000	503.025485578579	1
0	1001	503.339935104956	0
0	1016	508.619359722125	1
0	1018	509.069736491167	2
0	1020	509.438866672383	3
0	1021	510.017007180803	2
0	1024	511.403960180601	3
0	1025	511.728013538604	2
0	1027	512.272840862603	1
0	1030	513.442306389322	2
0	1032	514.932840250655	3
0	1034	516.939038280526	4
0	1036	517.779750419322	5
0	1037	518.566443860073	4
0	1039	519.417541586703	3
0	1041	519.572607605718	2
0	1043	520.192284038324	1
0	1046	520.275896097604	2
0	1047	520.59320647792	1
0	1049	520.818075234793	0
0	1056	521.601156717326	1
0	1057	522.74312688578	0
0	1060	523.828417240658	1
0	1061	524.125009861561	0
0	1112	555.442292685682	1
0	1114	555.801985833085	2
0	1115	555.938620253515	1
0	1117	557.325841457594	0
0	1120	557.569396102266	1
0	1121	557.790499607071	0
0	1124	557.876779931166	1
0	1126	558.664505397239	2
0	1127	558.798030656618	1
0	1130	558.864228483769	2
0	1131	559.654512887128	1
0	1133	559.924144664119	0
0	1136	560.689262909133	1
0	1138	562.969541573907	2
0	1139	563.727402221391	1
0	1141	564.380443213147	0
0	1152	571.280419509317	1
0	1153	576.340501670056	0
0	1180	590.356352425275	1
0	1181	590.647500413167	0
0	1204	606.824193676608	1
0	1205	607.222051489951	0
0	1216	610.751376323664	1
0	1218	611.086125074694	2
0	1219	611.331825302645	1
0	1221	612.442761082917	0
0	1228	613.9444375079	1
0	1229	614.833979169455	0
0	1256	629.700408503424	1
0	1258	630.400540789177	2
0	1260	630.473212093646	3
0	1262	632.035204228489	4
0	1264	632.209321470423	5
0	1265	632.303971753849	4
0	1267	634.189308308787	3
0	1270	634.997931660769	4
0	1272	635.090136425428	5
0	1273	635.868278000419	4
0	1275	635.960481992022	3
0	1277	636.295137550474	2
0	1279	637.117276991018	1
0	1281	638.043839999913	0
0	1288	641.441519612431	1
0	1289	641.620470416577	0
0	1292	641.864656886866	1
0	1293	642.039006567245	0
0	1304	648.973160022765	1
0	1305	649.39370808317	0
0	1340	667.005525453953	1
0	1341	667.456981268933	0
0	1344	667.54981907714	1
0	1345	671.069116703549	0
0	1352	671.9083874552	1
0	1354	673.83086889024	2
0	1356	675.298750142488	3
0	1358	675.422544213417	4
0	1359	676.344919190238	3
0	1361	676.552472380443	2
0	1363	677.343781990252	1
0	1366	677.48230595336	2
0	1367	677.546387934803	1
0	1369	678.208215473522	0
0	1372	678.934924165764	1
0	1373	679.073460861853	0
0	1404	693.054986298405	1
0	1405	693.09007847071	0
0	1424	708.870067315376	1
0	1426	709.155998080215	2
0	1427	709.29770734231	1
0	1429	711.45441660556	0
0	1436	712.494918002441	1
0	1437	712.596037966592	0
0	1440	713.47106919946	1
0	1441	715.127148818516	0
0	1468	738.743438691674	1
0	1470	739.009436383433	2
0	1471	739.365877865826	1
0	1474	740.414606793065	2
0	1476	740.551274256717	3
0	1478	740.708008379865	4
0	1480	740.945765414933	5
0	1481	741.759024522979	4
0	1484	741.915437363054	5
0	1485	742.420182639313	4
0	1487	743.211925622974	3
0	1489	743.913680425305	2
0	1492	743.971723993612	3
0	1494	744.864654958111	4
0	1495	745.223544587326	3
0	1497	746.057559287738	2
0	1499	746.597167780524	1
0	1501	747.27244898029	0
0	1508	749.987894495683	1
0	1509	751.414075765742	0
0	1528	759.350224893046	1
0	1529	762.952925751435	0
0	1548	770.30532599873	1
0	1550	771.258020921567	2
0	1551	771.653595526246	1
0	1553	773.321424524115	0
0	1560	775.630869622745	1
0	1561	777.211016825496	0
0	1568	780.585165530419	1
0	1570	780.703543617596	2
0	1572	781.244569008513	3
0	1574	782.630410657473	4
0	1575	782.661668082153	3
0	1577	782.974195689551	2
0	1579	783.495386473925	1
0	1581	784.044848883411	0
0	1584	784.450797658797	1
0	1586	784.717846141111	2
0	1587	786.326481571758	1
0	1590	789.27511864476	2
0	1592	793.835248857347	3
0	1593	794.897007755229	2
0	1595	795.480725103834	1
0	1598	795.595963441458	2
0	1600	796.048164397078	3
0	1602	796.197790277619	4
0	1603	796.899026205839	3
0	1605	797.16802976574	2
0	1608	797.416483975159	3
0	1609	798.316411201618	2
0	1611	798.357543208024	1
0	1613	798.475559515299	0
0	1624	802.342682319547	1
0	1625	802.639244003497	0
0	1636	813.050807121826	1
0	1637	815.918497529738	0
0	1656	832.822078740126	1
0	1657	832.965165105665	0
0	1688	847.388672552253	1
0	1690	848.271090382338	2
0	1691	848.487175441962	1
0	1693	849.518933357247	0
0	1696	851.088092795412	1
0	1697	851.471214953413	0
0	1708	856.115526198173	1
0	1709	856.439023931087	0
0	1712	856.581989976949	1
0	1714	856.840023686522	2
0	1716	859.203335454457	3
0	1718	859.374462303971	4
0	1720	860.625793177862	5
0	1721	860.637597416391	4
0	1723	861.100986285972	3
0	1725	861.865636217241	2
0	1728	862.442487577029	3
0	1729	862.448158295368	2
0	1731	863.236888606117	1
0	1733	863.742272278603	0
0	1744	870.395249848449	1
0	1745	871.750557183079	0
0	1752	873.493998800411	1
0	1753	874.469900742801	0
0	1768	889.505453628134	1
0	1770	889.508580240327	2
0	1772	889.592547652833	3
0	1774	889.965567634265	4
0	1776	890.031164060226	5
0	1777	890.331231460152	4
0	1779	891.746259664805	3
0	1781	891.845000614456	2
0	1784	892.482479241185	3
0	1785	892.677171321692	2
0	1787	893.274019602801	1
0	1790	893.669621562219	2
0	1792	893.806733441711	3
0	1793	895.871992582237	2
0	1796	897.24634837639	3
0	1797	897.348261628835	2
0	1799	897.629431339395	1
0	1801	899.542586425113	0
0	1816	906.70209156137	1
0	1818	906.713127040051	2
0	1820	907.263860654322	3
0	1821	907.452951371263	2
0	1823	907.669370059995	1
0	1825	908.250800574067	0
0	1868	933.424171353402	1
0	1870	933.869754690223	2
0	1871	936.443597277517	1
0	1873	936.662496105235	0
0	1880	939.553844028032	1
0	1882	939.832023977912	2
0	1884	939.870465437133	3
0	1886	939.962480789646	4
0	1887	940.164975813661	3
0	1889	940.27916651723	2
0	1891	940.816848058745	1
0	1893	940.973077461512	0
0	1900	942.450503360807	1
0	1902	942.477076111761	2
0	1903	943.610441262998	1
0	1905	943.712165416267	0
0	1928	948.928216777807	1
0	1929	949.863497131969	0
0	1936	952.735391089311	1
0	1938	953.537206443783	2
0	1940	953.818044138206	3
0	1941	955.033375593021	2
0	1943	955.868557434913	1
0	1946	955.955934171629	2
0	1948	957.573343086945	3
0	1949	959.029588519285	2
0	1951	959.828696641504	1
0	1953	960.384553242422	0
0	1980	983.104866659742	1
0	1982	983.211043361739	2
0	1983	984.388080900991	1
0	1985	986.633336298568	0
0	2004	999.206536469153	1
0	2005	999.363706381852	0
1	4	1.124715595064	0.657164510203
1	8	3.434281465812	0.545655246477
1	12	7.47133628788	1.960286987124
1	16	7.728125898614	0.187730018543
1	20	10.982757745491	0.41379565269
1	24	14.635237231014	0.31544092684
1	34	19.970003262673	1.17454784154
1	38	21.641055552339	2.310788331495
1	40	21.651638226628	2.298446956364
1	42	21.818460089986	1.967308611031
1	44	22.642180067971	1.543585818047
1	52	26.020241465902	1.680537583532
1	58	28.053901454099	3.47818615251
1	60	28.060061252615	3.297987342769
1	62	28.198088419087	0.702244292774
1	66	29.676690513466	1.76159729895
1	72	32.842788100432	3.760638852032
1	74	32.843053917293	2.924989836912
1	76	33.196275204502	2.233785690396
1	80	34.844382886683	1.460986599784
1	84	38.802833424377	1.165452078272
1	88	43.956102163341	0.489689707956
1	96	49.889811819594	0.955046710332
1	100	52.064905422092	3.015150313046
1	104	52.57314970475	3.320756313932
1	110	55.657103762452	5.289032311719
1	114	58.224565321292	6.10096083266
1	118	62.724139065621	8.174941240824
1	120	63.855514570162	9.068985767631
1	124	66.67372630896	9.158941167254
1	126	67.466818338774	6.945741850846
1	128	67.496325784672	1.704161400547
1	132	69.158985043242	0.195721828302
1	138	72.624497143084	2.078863716824
1	142	73.990722548167	1.369270499767
1	144	74.700182386762	1.787897359937
1	148	78.634763415696	0.137348839519
1	152	79.953520017054	0.662199521254
1	158	82.625569329842	0.725202480251
1	160	82.998467534838	0.673232244785
1	164	84.79195206568	0.046736892047
1	168	90.682906659969	0.575685371153
1	172	91.61273807737	0.100798283409
1	176	94.639517850685	0.046263971984
1	180	97.107824821819	1.154639032474
1	184	99.242758336653	1.891739474472
1	188	99.818482140504	0.133768197717
1	192	101.056711163326	0.138186790516
1	196	103.702118381492	0.640668592429
1	200	106.651467447409	0.22009633702
1	206	110.271346758662	1.52153121567
1	210	111.206346069118	1.888515535212
1	212	111.792434350689	1.085648954646
1	220	116.922738151859	4.019001778146
1	226	119.170445550808	6.222969337513
1	228	119.35375354588	3.346317773434
1	232	121.207070305919	2.731076958491
1	238	122.495458305588	3.525794938115
1	242	124.920629104074	4.921177497625
1	244	125.010833592563	3.463684718814
1	246	125.466103472778	3.166887246944
1	250	125.843089043146	3.323413986894
1	252	126.090445066766	0.569537208752
1	256	129.329725559931	1.334332944584
1	260	133.295022783585	1.76340741525
1	266	134.832532032937	1.364785192197
1	268	135.027983853642	0.730771418051
1	272	137.926492231127	1.955124829879
1	276	140.021144013379	0.005527663924
1	280	142.019243038191	0.442611320168
1	286	145.664056506989	3.0607669327
1	290	148.507520690655	3.641567420506
1	292	148.530839485442	2.578138321069
1	302	150.542086097874	1.117844029201
1	304	151.381722242778	1.715025442829
1	306	154.294102826392	4.569288294889
1	308	154.571336943777	4.487995549571
1	312	157.042627348928	0.171804156387
1	318	157.884167136059	0.70029832103
1	320	158.732320699275	1.220922954189
1	324	161.458398221616	0.634788492085
1	330	162.675173553204	0.709616545271
1	332	163.066368384878	0.699185360109
1	340	165.783988732171	2.175937951476
1	342	165.876773473129	0.806244248804
1	348	167.857911613959	2.534559685255
1	350	168.356540517395	2.45292373835
1	354	169.55129982753	2.158063205091
1	356	169.58222676892	0.17219897713
1	362	170.741398565366	1.070932822195
1	366	178.038379757792	8.036795559257
1	368	178.74470431966	6.791176190475
1	372	181.790880850033	2.69778929911
1	376	183.551719226665	0.581253221393
1	380	186.492215172581	0.223179370855
1	386	189.314003474679	1.628893785574
1	390	190.962556785616	2.984446953592
1	392	191.022256761809	1.356452391731
1	396	194.060195411021	1.562106123854
1	400	195.896881205037	0.59791278399
1	404	198.3814736539	1.905224753943
1	410	198.848103623427	0.450070608929
1	414	199.074286323259	0.329762937605
1	418	201.131492393221	2.162520947177
1	420	202.054576142551	2.879815148678
1	430	207.150402885271	1.782915102134
1	432	208.368801322244	2.762746355359
1	434	208.66349677433	1.825366978806
1	436	210.103174641747	3.206737876987
1	440	210.685882787408	0.504077087014
1	444	213.045205192542	0.21497235585
1	448	213.287908236255	0.185032933879
1	456	217.426171956075	2.202702068
1	458	217.875599396976	2.488115786605
1	462	220.057685472502	3.46651379612
1	464	220.368355585163	1.151526638298
1	470	226.843795374352	1.090106602431
1	472	227.414701997179	1.305996541407
1	478	229.179505193914	0.722923122715
1	482	230.012829873748	1.228410148975
1	484	230.04795460766	0.526235389333
1	494	234.267228473759	2.058748457527
1	496	235.041371715047	2.4368357327
1	502	237.014056787139	4.340062571444
1	504	237.064251178169	3.528459032383
1	506	237.55253038248	0.662740767519
1	516	240.2601076455	3.355445134217
1	518	241.933814040681	3.909062152823
1	520	242.441403494003	3.337447692322
1	524	244.019787715111	4.439056455158
1	528	245.647230676543	5.392940169638
1	530	246.053067627387	3.217967019172
1	536	248.643805917703	3.144481233794
1	538	249.067099255341	1.461618752845
1	540	249.10489676804	1.159323346331
1	544	249.972790840718	0.12281912238
1	552	252.03445559129	1.412409352538
1	554	252.484883432973	1.358546321671
1	558	253.41293061792	1.528798590401
1	562	255.40587196859	2.319587008465
1	568	256.099782373265	1.027757427788
1	570	256.741691686611	0.764383249666
1	572	257.78905629739	1.739254504106
1	576	260.059374198095	0.613581422621
1	580	261.737038857588	0.260021590299
1	590	270.983780683664	1.80939786221
1	592	271.010860963923	1.785828095916
1	594	272.920510523374	3.587220370116
1	596	273.088475853758	2.32692242616
1	612	277.536051896998	2.39340352524
1	620	280.992203737803	5.585202745476
1	622	281.538435627193	6.071617081897
1	624	281.591798533212	6.053193174036
1	628	286.997509012966	11.451649881897
1	632	287.364775024352	10.543264520467
1	636	292.666545565982	15.136346273852
1	638	292.700450935879	15.005918280023
1	640	293.172846704882	13.925887309017
1	642	295.142120802327	15.772930117316
1	646	296.006019487068	14.261031023239
1	648	296.330435810336	9.006147354525
1	654	299.473602886695	11.021974731977
1	656	300.190334567809	4.618536440922
1	660	301.409967989239	2.456846809047
1	662	303.261819068155	3.914439698036
1	664	303.971761196708	3.185994495364
1	670	313.452977251121	0.415586122681
1	672	313.661072544334	0.323206508345
1	676	313.783085850099	0.044492767079
1	680	316.25708565443	0.80764100083
1	684	317.553681660639	0.661020703079
1	694	320.692506094399	1.960987103016
1	698	320.995265515231	1.678025346482
1	702	327.275492515937	7.934448650042
1	704	328.87771266126	8.488494388707
1	706	329.386161086763	8.405704023053
1	708	329.450954092756	5.760961031528
1	714	331.048220341247	0.379511743279
1	716	331.134628500631	0.298678973485
1	720	337.938933933234	1.368519827846
1	724	338.39634533642	0.291823063359
1	728	341.742717703972	0.432166346232
1	734	348.426717069497	1.067683116814
1	736	350.226331493101	2.455700293644
1	742	356.845526949905	1.278791299758
1	746	357.366191429481	1.388751786494
1	752	358.864261072781	1.967096956993
1	754	359.250047118725	1.799034929018
1	762	360.339255195274	1.866188881176
1	764	362.220475538461	2.764970226311
1	768	364.043697058363	4.473097429347
1	770	364.912643564867	4.940279052916
1	772	365.536883830202	2.572374550827
1	776	366.806170180376	0.254896009295
1	780	370.144615304681	0.00601757369
1	784	374.396916480964	0.777827795361
1	788	375.525363452312	0.711713633391
1	792	376.746818090719	0.047843449936
1	796	378.169328785131	0.842193213189
1	804	383.298040358355	3.956313881336
1	806	384.090854524625	3.845703548202
1	808	384.983091304847	1.953168483206
1	814	387.882295556165	1.555948176947
1	818	389.384643620553	2.62697307815
1	820	389.979124288391	1.225321498507
1	826	394.457933365752	0.503052655397
1	828	395.452971012405	1.12474567821
1	832	398.879260928464	0.103842907931
1	836	399.821983730058	0.211693819679
1	840	401.119295605228	0.089438566695
1	848	410.250306279621	6.068050678261
1	850	410.633545917342	5.837190095458
1	852	411.237434930409	2.648192924693
1	856	412.080208074939	0.199130952939
1	860	414.005336510152	0.00443386669
1	864	415.442759816098	1.14355050713
1	870	419.243397495128	0.58479797932
1	872	422.366200984558	3.272368376764
1	876	424.902469823185	0.762186425236
1	880	425.193339520128	0.143820992544
1	884	427.852896860457	1.017665752078
1	888	429.747750879818	0.03472932736
1	892	433.448533451998	0.711510911538
1	898	436.804962674822	1.742409128833
1	900	437.377501905093	0.604731173666
1	904	438.17119408215	0.633191330808
1	910	441.631159352404	2.499705708557
1	914	442.917215133094	2.664689253551
1	916	443.736221193698	1.059752892355
1	920	445.252240551137	0.077163829499
1	924	450.243634173205	1.361952515775
1	928	451.502229964563	0.417238213815
1	934	453.804690012637	1.948038823213
1	936	454.76071410438	1.063663209154
1	942	458.284434179028	0.579077170309
1	944	459.258619723342	1.411773917225
1	948	469.147935064774	0.142396915377
1	952	475.598961817542	0.487187014573
1	958	480.841855105119	2.800330773587
1	960	481.618377066711	1.321499546951
1	966	483.375287970512	0.774687622925
1	968	483.649349386306	0.473918045278
1	972	485.933687051142	0.944781208923
1	976	489.883796810711	0.213922770638
1	982	495.533745293405	3.197610246678
1	984	495.848827284829	2.161751183312
1	990	498.722120203808	0.866600503873
1	994	500.208611931262	1.609895927914
1	996	501.400742493758	1.643243520153
1	1002	503.339935104956	1.451639992513
1	1004	504.229298016892	1.203812438313
1	1008	505.505442509522	0.127786358943
1	1012	506.653746540886	1.10814671932
1	1022	510.017007180803	3.091980721257
1	1026	511.728013538604	3.108653816479
1	1028	512.272840862603	3.203104371436
1	1038	518.566443860073	9.12757718769
1	1040	519.417541586703	8.013581406102
1	1042	519.572607605718	6.130301216396
1	1044	520.192284038324	5.259443787669
1	1048	520.59320647792	3.654168197394
1	1050	520.818075234793	3.038324815471
1	1052	521.43734667915	1.161450581546
1	1058	522.74312688578	1.303170612095
1	1062	524.125009861561	2.523853144235
1	1064	524.585969721655	0.757552480997
1	1068	525.637832914852	0.114829049161
1	1072	526.851114625903	0.58160033514
1	1076	529.753291621394	0.265536354648
1	1080	530.704827440394	0.900849054797
1	1084	534.715096547641	2.623859231802
1	1088	538.389061378807	0.104249613777
1	1092	544.51211468021	0.079013013266
1	1096	545.782604549862	0.088551828952
1	1100	548.098801846833	0.490153550137
1	1104	548.453400497498	0.075700879572
1	1108	548.700337789225	0.087232960807
1	1116	555.938620253515	1.04722981731
1	1118	557.325841457594	1.883548771912
1	1122	557.790499607071	1.988513773986
1	1128	558.798030656618	1.228634554352
1	1132	559.654512887128	1.777732955962
1	1134	559.924144664119	1.25963926688
1	1140	563.727402221391	4.863173737622
1	1142	564.380443213147	3.691180304014
1	1144	566.539874302313	3.570332728406
1	1148	567.235363633911	0.283271107454
1	1154	576.340501670056	6.382603574187
1	1156	576.866660942157	5.58624143284
1	1160	577.239103709504	0.152665073459
1	1164	580.230568468508	0.089341730103
1	1168	582.805834552647	0.710793798464
1	1172	587.453003740554	0.827037622574
1	1176	588.626483288026	0.035522841575
1	1182	590.647500413167	0.912571570192
1	1184	590.735713557605	0.37936113233
1	1188	595.816179660101	0.195264690567
1	1192	596.281614490021	0.337256855378
1	1196	602.682031619224	0.900744787998
1	1200	605.652444361822	1.393358275483
1	1206	607.222051489951	1.224081418456
1	1208	608.332147994242	1.507954317634
1	1212	609.391780478287	0.537322484501
1	1220	611.331825302645	0.642048562668
1	1222	612.442761082917	1.691384759253
1	1224	612.875165193454	1.78904011876
1	1230	614.833979169455	1.949995639625
1	1232	616.467497030411	2.523059522511
1	1236	619.340192433102	0.370139627476
1	1240	620.342372960259	0.218829881878
1	1244	622.87355091906	0.952916314622
1	1248	623.381472463711	0.183448020403
1	1252	626.928433239871	3.249901043489
1	1266	632.303971753849	4.70870458902
1	1268	634.189308308787	4.488899805363
1	1274	635.868278000419	5.467737211242
1	1276	635.960481992022	5.487269898376
1	1278	636.295137550474	4.259933321985
1	1280	637.117276991018	4.907955520595
1	1282	638.043839999913	3.045908339144
1	1284	638.295957361426	3.205820935998
1	1290	641.620470416577	0.445150664669
1	1294	642.039006567245	0.597486954814
1	1296	642.103092321511	0.238435434645
1	1300	648.336110721583	0.375538768163
1	1306	649.39370808317	1.02404741299
1	1308	650.153699761261	1.180539738496
1	1312	653.214370782387	1.026212634172
1	1316	655.501922212214	0.503353296727
1	1320	659.658966411372	0.768926343413
1	1324	661.001020074596	0.202254848753
1	1328	662.013210424531	0.818997021927
1	1332	664.411078542262	0.750020958308
1	1336	666.137147939005	0.866142651272
1	1342	667.456981268933	0.562652329865
1	1346	671.069116703549	4.063591249596
1	1348	671.081592749602	3.531773672462
1	1360	676.344919190238	4.624057090204
1	1362	676.552472380443	4.644084925243
1	1364	677.343781990252	3.512913100012
1	1368	677.546387934803	2.247637792315
1	1370	678.208215473522	2.785671260105
1	1374	679.073460861853	1.591154908493
1	1376	679.253615221858	0.318691056094
1	1380	682.173594647672	0.29602136683
1	1384	683.644517755584	0.601511402234
1	1388	686.100453774133	0.564944218924
1	1392	690.291351179396	0.450039284908
1	1396	691.320984815491	0.907233866689
1	1400	691.912815621734	0.462669106187
1	1406	693.09007847071	0.232451261085
1	1408	693.324545429324	0.269559130919
1	1412	694.621999950225	0.318886885635
1	1416	696.094199391631	0.390871114262
1	1420	698.478486884737	0.211050543765
1	1428	709.29770734231	0.93052704967
1	1430	711.45441660556	2.584349290184
1	1432	711.534162147057	2.378164066842
1	1438	712.596037966592	0.987157712286
1	1442	715.127148818516	2.632230816075
1	1444	716.440608714051	2.969539514591
1	1448	721.749113500771	0.170239220278
1	1452	724.600708493883	0.084698256812
1	1456	726.333973505258	0.29127961917
1	1460	727.364740099709	0.383245233669
1	1464	728.67383566873	0.115252826014
1	1472	739.365877865826	1.13205414768
1	1482	741.759024522979	3.015585831305
1	1486	742.420182639313	3.41074625588
1	1488	743.211925622974	2.797318829909
1	1490	743.913680425305	3.362406168588
1	1496	745.223544587326	4.515536207461
1	1498	746.057559287738	5.111793872805
1	1500	746.597167780524	4.68173041747
1	1502	747.27244898029	3.300724986678
1	1504	747.985784316852	3.121129358741
1	1510	751.414075765742	1.564477929438
1	1512	752.057544281191	2.069649785508
1	1516	754.128881049203	0.591038245441
1	1520	757.726873439842	3.517016771265
1	1524	758.68335273992	0.416972422851
1	1530	762.952925751435	3.992065245539
1	1532	763.061672788553	3.711447895507
1	1536	766.352158730202	2.221308026167
1	1540	766.712738596971	0.168559341411
1	1544	768.391992567824	0.898950549545
1	1552	771.653595526246	1.383452982092
1	1554	773.321424524115	3.016098525385
1	1556	773.809945459978	2.551924538411
1	1562	777.211016825496	1.593241465048
1	1564	777.602026527972	1.971156905227
1	1576	782.661668082153	3.552336980576
1	1578	782.974195689551	2.389030159132
1	1580	783.495386473925	2.791842856329
1	1582	784.044848883411	2.800279874898
1	1588	786.326481571758	3.696070914285
1	1594	794.897007755229	10.446210096432
1	1596	795.480725103834	10.762878962723
1	1604	796.899026205839	7.623907561079
1	1606	797.16802976574	3.332780908393
1	1610	798.316411201618	2.72044776016
1	1612	798.357543208024	2.309378810946
1	1614	798.475559515299	2.27776923768
1	1616	798.641425567934	1.224941592775
1	1620	800.787702008358	0.062624464879
1	1626	802.639244003497	1.341325706328
1	1628	805.231174453728	2.888492134181
1	1632	807.310677535456	0.008391300608
1	1638	815.918497529738	3.417167438554
1	1640	816.311157897749	3.260350775923
1	1644	816.758380678353	0.017377145448
1	1648	826.161263026486	0.177550981488
1	1652	830.121335692529	1.529078929779
1	1658	832.965165105665	0.587934138691
1	1660	833.293195387259	0.471116647133
1	1664	834.604142221842	0.62139770913
1	1668	835.136964154009	0.220915815542
1	1672	837.939406353095	1.046422717366
1	1676	838.731509808629	0.034012891097
1	1680	841.294572501121	1.768037444527
1	1684	842.391516242022	0.280448697566
1	1692	848.487175441962	1.607500282719
1	1694	849.518933357247	2.130260804994
1	1698	851.471214953413	3.200124571075
1	1700	852.632726468887	1.544633673475
1	1704	853.867725334949	0.809162643878
1	1710	856.439023931087	2.139898725483