version 3
run General-14-20221103-09:44:57-15908
attr configname General
attr datetime 20221103-09:44:57
attr datetimef 20221103-094457
attr experiment General
attr inifile simu_1.ini
attr iterationvars ""
attr iterationvarsd ""
attr iterationvarsf ""
attr measurement ""
attr network Rete
attr processid 15908
attr repetition 14
attr replication #14
attr resultdir results
attr runnumber 14
attr seedset 14
config network Rete
config record-eventlog true
config repeat 30
config sim-time-limit 1000s
config simtime-resolution ps
config **.Servente.serviceTime exponential(1s)
config **.Arrivi.interArrivalTime exponential(2s)

vector 0 Rete.Servente queueLength:vector ETV
attr interpolationmode sample-hold
attr recordingmode vector
attr title "queue length"
vector 1 Rete.Pozzo lifeTime:vector ETV
attr interpolationmode none
attr recordingmode vector
attr title "lifetime of arrived jobs"
attr unit s
0	0	0	0
0	16	9.92946814899	1
0	17	9.977450884168	0
0	20	10.378972217454	1
0	22	10.881014448455	2
0	24	12.320476126735	3
0	26	13.090112238847	4
0	27	13.138146046249	3
0	29	13.590891103468	2
0	32	13.856397755434	3
0	33	14.36568214018	2
0	35	14.615753692467	1
0	38	15.405167187764	2
0	39	15.759650243114	1
0	41	16.525261276805	0
0	48	19.25862145027	1
0	49	19.464046207438	0
0	56	26.369130785216	1
0	58	26.86338783939	2
0	59	27.159005087493	1
0	62	27.334893939205	2
0	63	27.50786291252	1
0	65	27.931486435741	0
0	76	42.738673076291	1
0	77	43.665076514436	0
0	104	60.802330182136	1
0	106	61.052600379556	2
0	107	61.806973438557	1
0	109	62.114965168881	0
0	120	66.101275478725	1
0	121	67.912781916578	0
0	128	74.282640928162	1
0	130	74.305904963951	2
0	132	74.434662134175	3
0	133	75.600944882831	2
0	135	76.915778944999	1
0	137	79.065403016275	0
0	140	79.370782789583	1
0	142	79.540667809031	2
0	143	80.422182675353	1
0	146	80.588880704774	2
0	147	81.615392997881	1
0	149	82.786513580285	0
0	164	100.841674626941	1
0	165	101.67524658469	0
0	176	105.203586893805	1
0	177	105.501904284529	0
0	196	124.215010003359	1
0	197	126.299318091308	0
0	216	130.332612894622	1
0	218	132.833501836387	2
0	220	133.39994147518	3
0	222	133.798335615224	4
0	224	134.031522698886	5
0	225	134.393506115722	4
0	227	135.091304585662	3
0	229	135.205983610675	2
0	231	135.815013591474	1
0	233	137.126258200681	0
0	244	142.527681686532	1
0	245	142.689494999376	0
0	268	156.560772884881	1
0	269	156.932869758419	0
0	308	174.996795417504	1
0	309	175.090161010788	0
0	320	178.629211198824	1
0	321	178.767897673828	0
0	324	178.772123530013	1
0	325	178.804281320215	0
0	328	182.105674652858	1
0	329	182.143329040737	0
0	336	183.874374156339	1
0	337	184.165213187018	0
0	340	184.520976140809	1
0	341	184.863634095605	0
0	356	194.893739454321	1
0	358	194.923149785853	2
0	359	195.12161637472	1
0	361	198.107532346708	0
0	364	200.390100107387	1
0	365	203.415960216014	0
0	372	205.333383602596	1
0	373	205.612090918902	0
0	396	222.712649246341	1
0	397	224.441768656686	0
0	412	231.533401309971	1
0	414	232.335513420143	2
0	415	232.560855355988	1
0	417	232.734427202383	0
0	424	233.054430874147	1
0	425	233.19716825321	0
0	440	240.385684034907	1
0	442	240.847041437943	2
0	443	241.995704457754	1
0	445	242.334070224661	0
0	460	252.375246610378	1
0	461	253.21456298913	0
0	476	262.179695159751	1
0	478	262.465922567748	2
0	480	262.624541818548	3
0	482	262.75337034377	4
0	484	263.215415037884	5
0	485	263.344320861043	4
0	487	265.536424021371	3
0	490	266.060915274602	4
0	491	266.140448837041	3
0	493	266.335940172728	2
0	495	266.564738428686	1
0	498	267.12537167806	2
0	499	267.401370576823	1
0	502	267.977517769394	2
0	504	269.040251148755	3
0	505	269.709883488556	2
0	507	271.11754248603	1
0	510	271.918195212799	2
0	512	272.203821726798	3
0	514	272.222899186188	4
0	515	272.282269215664	3
0	517	272.816686949886	2
0	519	273.294413408259	1
0	521	273.947620470615	0
0	536	279.187573354407	1
0	537	280.957522260609	0
0	540	281.138072415018	1
0	542	281.252249589673	2
0	544	281.583005311263	3
0	545	281.600652462163	2
0	548	282.190598180334	3
0	549	282.403942760055	2
0	551	283.373289411904	1
0	554	283.939392746907	2
0	555	284.197459931194	1
0	557	286.903598630561	0
0	584	303.209549410792	1
0	585	303.346846307457	0
0	596	308.578882511722	1
0	597	308.743610939534	0
0	604	311.874945981767	1
0	605	312.179546589205	0
0	616	313.680147587272	1
0	618	316.646083392296	2
0	619	317.432261077783	1
0	621	317.475490502096	0
0	624	317.852417397078	1
0	626	319.010806409597	2
0	627	320.662019394834	1
0	629	321.339879431546	0
0	644	330.493419211568	1
0	646	331.01158359057	2
0	647	331.979018504794	1
0	649	334.196062127288	0
0	652	334.276351688596	1
0	654	334.474119922196	2
0	655	334.83942022738	1
0	658	335.836334273213	2
0	659	335.886365556936	1
0	661	336.255812652885	0
0	664	336.426137107357	1
0	665	337.191016504675	0
0	672	339.287605469823	1
0	673	339.606493361273	0
0	688	346.606021594283	1
0	690	346.870414396566	2
0	691	347.803459509456	1
0	693	348.256789395448	0
0	696	348.35976711561	1
0	697	349.276429156739	0
0	700	349.865494242034	1
0	701	350.053755850731	0
0	708	351.542423529292	1
0	709	351.803193289999	0
0	716	353.760093820091	1
0	717	353.93840665591	0
0	728	365.854832889074	1
0	730	366.543907516202	2
0	731	368.192645138778	1
0	734	368.359952600158	2
0	736	369.645187854312	3
0	737	369.898333275451	2
0	740	370.755994047503	3
0	742	371.43092420681	4
0	744	371.941725155253	5
0	746	373.898798092942	6
0	748	375.110249985943	7
0	749	375.301908139646	6
0	752	375.466070109287	7
0	753	375.87141863074	6
0	756	377.01535855575	7
0	757	377.300861074645	6
0	759	378.14841004802	5
0	761	379.418152433711	4
0	763	380.583084618701	3
0	766	380.9804704508	4
0	767	381.168762700351	3
0	770	382.04244696385	4
0	772	382.532772950938	5
0	773	384.057652217028	4
0	775	384.216491738315	3
0	778	386.262763829095	4
0	780	386.850713826396	5
0	781	388.078337707177	4
0	783	388.582379721977	3
0	786	388.740476569136	4
0	788	388.882274523647	5
0	789	389.12729962818	4
0	792	389.776264677665	5
0	794	390.642962241557	6
0	795	390.736905772809	5
0	798	390.785370547739	6
0	800	390.861388184163	7
0	802	391.376925221321	8
0	804	391.821448805822	9
0	806	393.613911811116	10
0	808	394.1166898646	11
0	810	394.45514557119	12
0	811	394.545764653732	11
0	814	395.0699791644	12
0	816	395.099210738911	13
0	817	395.27319242133	12
0	819	395.7597214756	11
0	822	396.308799826752	12
0	823	396.339437402473	11
0	825	398.266859352219	10
0	827	398.370387417305	9
0	830	398.604711443272	10
0	831	398.807497796151	9
0	833	399.541320632396	8
0	835	399.63768850903	7
0	838	400.975629275929	8
0	839	403.019171942002	7
0	841	403.962224971008	6
0	843	404.556497296081	5
0	846	405.213630503386	6
0	847	405.56387800068	5
0	849	406.36796295215	4
0	852	406.875280206249	5
0	853	406.91565654742	4
0	856	408.326806647866	5
0	857	408.540541516272	4
0	859	408.950863385158	3
0	861	409.061858161492	2
0	863	409.456444921556	1
0	865	409.464260259108	0
0	876	414.3721818372	1
0	877	414.436859597226	0
0	884	421.965441576711	1
0	885	422.017840335906	0
0	888	422.310554966059	1
0	889	424.806318841391	0
0	892	424.808025768739	1
0	893	424.910132444146	0
0	912	439.560591944964	1
0	914	439.696634666136	2
0	916	440.815385033839	3
0	918	441.052129277431	4
0	919	441.072715764628	3
0	921	441.903670570249	2
0	923	442.410041539737	1
0	926	444.050019055122	2
0	928	445.317459557815	3
0	930	445.555467032789	4
0	931	446.309480789941	3
0	933	446.406349464179	2
0	935	446.67327873451	1
0	938	446.759942884622	2
0	939	446.833916858817	1
0	941	447.382431558923	0
0	944	447.527890348901	1
0	946	448.162846171273	2
0	948	448.343811993482	3
0	950	448.422209099309	4
0	952	450.422024151522	5
0	953	450.959736242227	4
0	955	451.113522249767	3
0	957	451.348529136992	2
0	959	452.062052787714	1
0	961	452.630541618495	0
0	980	460.985776225375	1
0	982	461.233529712537	2
0	984	461.799678516119	3
0	986	461.94768224111	4
0	987	462.028955628837	3
0	989	462.507171072323	2
0	991	463.068066467447	1
0	993	463.53540692162	0
0	1000	469.029052144043	1
0	1001	469.882285807725	0
0	1016	480.299181180243	1
0	1017	481.035433524395	0
0	1036	494.31479140307	1
0	1038	494.832564054976	2
0	1039	495.428238821121	1
0	1042	496.199055371808	2
0	1043	496.396304877927	1
0	1045	497.41777013989	0
0	1048	497.432767372037	1
0	1050	499.36197041582	2
0	1051	500.616673880084	1
0	1053	504.130301277124	0
0	1060	509.350447515756	1
0	1061	511.36842865317	0
0	1064	511.631196696178	1
0	1065	511.663448115864	0
0	1068	512.606823903445	1
0	1069	512.617442967929	0
0	1088	521.759376629552	1
0	1089	522.163863964327	0
0	1096	532.679460191122	1
0	1097	532.845478487968	0
0	1112	542.561769207462	1
0	1113	543.286322728057	0
0	1124	546.262063151364	1
0	1125	548.393349825311	0
0	1132	549.31633690031	1
0	1133	549.745640841531	0
0	1136	550.269751978601	1
0	1137	550.386572002721	0
0	1140	550.778357917647	1
0	1141	551.207050218294	0
0	1144	553.200994237475	1
0	1145	554.871157386846	0
0	1152	558.016798443905	1
0	1153	558.133362463701	0
0	1160	561.843388756056	1
0	1162	563.096797129672	2
0	1164	563.223224403001	3
0	1166	563.317659958161	4
0	1167	564.538160975112	3
0	1169	566.047715877301	2
0	1171	567.367017967538	1
0	1173	567.653631702145	0
0	1196	591.128108389402	1
0	1198	591.47501690586	2
0	1199	591.773651126735	1
0	1202	591.872110451136	2
0	1203	592.468663896706	1
0	1205	592.618027995429	0
0	1220	602.532713752742	1
0	1221	604.599242182237	0
0	1224	604.940392191796	1
0	1225	605.196363586378	0
0	1232	612.002332066132	1
0	1233	612.346729304445	0
0	1272	639.711870730908	1
0	1274	639.748208683276	2
0	1276	640.102458865215	3
0	1278	640.569192920697	4
0	1279	642.546403397291	3
0	1281	642.913155823263	2
0	1283	643.506581306003	1
0	1285	644.260985263949	0
0	1292	653.202402131028	1
0	1293	653.310526045743	0
0	1296	655.239094386921	1
0	1298	655.530039630261	2
0	1299	656.69601976402	1
0	1301	658.665183598498	0
0	1336	682.946511355071	1
0	1337	683.485170453652	0
0	1340	683.621772447362	1
0	1341	684.238660824486	0
0	1356	692.717365538228	1
0	1357	692.794890159083	0
0	1360	694.469241883119	1
0	1362	695.079982671882	2
0	1363	695.20657234974	1
0	1365	695.578565523799	0
0	1372	696.337132542037	1
0	1374	696.805622455317	2
0	1376	697.391660987321	3
0	1377	699.318648324127	2
0	1379	701.791359357011	1
0	1381	702.313008776401	0
0	1396	712.036676549683	1
0	1397	713.337524808288	0
0	1412	726.105646172969	1
0	1413	726.223699550152	0
0	1420	731.637275959265	1
0	1422	733.885630036881	2
0	1423	735.213356423353	1
0	1425	735.597106858305	0
0	1428	736.067707746631	1
0	1430	737.751520748767	2
0	1431	738.657851930332	1
0	1434	739.416157554727	2
0	1436	739.537082682197	3
0	1437	739.796457829315	2
0	1439	740.49262934919	1
0	1442	742.015331699459	2
0	1443	742.771648596336	1
0	1446	744.48089970257	2
0	1448	746.061549654691	3
0	1450	746.105545827107	4
0	1451	746.838909697964	3
0	1453	747.081809425082	2
0	1455	747.157595195727	1
0	1458	747.46512251011	2
0	1459	748.336583970273	1
0	1461	748.408211743441	0
0	1472	756.340528039181	1
0	1474	757.836816966086	2
0	1475	758.29291836103	1
0	1477	759.586795678777	0
0	1480	760.009648953025	1
0	1481	760.133099655532	0
0	1484	760.266238897108	1
0	1485	761.422822460676	0
0	1496	764.93439569831	1
0	1498	766.346288651961	2
0	1500	768.057936331308	3
0	1501	768.976738102219	2
0	1504	769.183762344962	3
0	1505	769.947358634105	2
0	1507	770.696436005209	1
0	1510	772.96247043686	2
0	1511	773.360802102239	1
0	1514	774.226630173464	2
0	1515	775.617084065091	1
0	1517	775.823234589401	0
0	1532	794.899110189033	1
0	1533	795.389376807157	0
0	1540	798.201158062491	1
0	1542	799.167139820703	2
0	1543	799.544211556798	1
0	1545	799.688199888528	0
0	1552	802.178297649969	1
0	1553	804.013815835847	0
0	1560	808.913960278202	1
0	1561	809.101844687003	0
0	1564	810.709179854819	1
0	1565	812.849213747683	0
0	1576	816.382395149226	1
0	1577	816.866012440472	0
0	1584	817.5683925872	1
0	1586	819.375364797405	2
0	1588	819.508552223587	3
0	1589	821.79889999481	2
0	1591	823.466967141018	1
0	1594	823.498048103461	2
0	1595	824.438008124813	1
0	1597	824.462074775325	0
0	1612	830.696247821067	1
0	1614	832.174823097874	2
0	1615	832.913898527608	1
0	1617	833.968932613006	0
0	1628	839.158804416052	1
0	1630	839.174343691831	2
0	1631	839.906513823044	1
0	1633	840.407492827552	0
0	1644	853.365321435569	1
0	1645	853.530027947642	0
0	1656	862.6782972953	1
0	1657	862.891475743159	0
0	1680	876.916029175565	1
0	1682	877.925734545895	2
0	1684	877.944935360788	3
0	1685	878.211282251648	2
0	1687	878.704179141522	1
0	1690	879.799952267477	2
0	1692	879.827852059899	3
0	1693	879.90491133266	2
0	1695	879.922984859945	1
0	1698	880.83837125451	2
0	1699	880.869943698922	1
0	1701	881.296769851251	0
0	1712	896.33080354167	1
0	1713	896.480359155863	0
0	1724	902.660645344912	1
0	1725	903.182542615047	0
0	1740	925.473838248855	1
0	1741	925.966012144284	0
0	1744	926.373795756833	1
0	1745	928.410481666587	0
0	1768	935.54186234245	1
0	1770	935.870633394035	2
0	1771	936.155468253745	1
0	1773	937.324013290655	0
0	1780	939.183361877957	1
0	1781	939.500750907217	0
0	1784	939.750295383643	1
0	1785	939.779256928489	0
0	1800	949.056079842692	1
0	1801	949.358244654105	0
0	1824	972.70962004452	1
0	1825	972.730006485851	0
0	1828	972.895309885501	1
0	1829	973.019588352162	0
0	1840	980.487699753183	1
0	1841	981.107030508048	0
0	1844	981.3387187692	1
0	1845	983.621892688229	0
1	4	2.926392771136	1.483532618307
1	8	8.585738705314	2.043516133821
1	12	8.702545634107	0.008079500253
1	18	9.977450884168	0.370681045221
1	28	13.138146046249	3.208677897259
1	30	13.590891103468	3.211918886014
1	34	14.36568214018	3.484667691725
1	36	14.615753692467	2.295277565732
1	40	15.759650243114	2.669538004267
1	42	16.525261276805	2.668863521371
1	44	16.944198670171	1.539031482407
1	50	19.464046207438	0.774116146169
1	52	19.469937315535	0.211315865265
1	60	27.159005087493	1.118261509534
1	64	27.50786291252	1.138732127304
1	66	27.931486435741	1.068098596351
1	68	28.400282384487	1.065388445282
1	72	34.123873641707	1.396017170375
1	78	43.665076514436	1.440281797668
1	80	45.709146748002	2.970473671711
1	84	50.305902265589	0.116658746448
1	88	50.783193415927	0.356806351943
1	92	51.450475661946	0.644177539762
1	96	55.137524556311	1.117601614488
1	100	59.368528440818	0.297856910453
1	108	61.806973438557	1.207817925369
1	110	62.114965168881	1.312634986745
1	112	62.315867596487	1.263267216931
1	116	63.581351308325	0.38870090601
1	122	67.912781916578	2.185135018778
1	124	67.999810563909	1.898535085184
1	134	75.600944882831	1.372644444471
1	136	76.915778944999	2.633138016837
1	138	79.065403016275	4.759498052324
1	144	80.422182675353	5.987520541178
1	148	81.615392997881	2.244610208298
1	150	82.786513580285	3.245845771254
1	152	83.388244144441	2.799363439667
1	156	90.307487398397	0.210571090643
1	160	98.727942989676	0.433288318167
1	166	101.67524658469	1.254605496504
1	168	102.117534455962	1.275859829021
1	172	104.27480086025	0.052998495013
1	178	105.501904284529	0.379678947596
1	180	112.231187647284	7.027600753479
1	184	116.65883827609	0.339543742092
1	188	119.218769914554	0.619517360901
1	192	122.58692154131	1.329037699024
1	198	126.299318091308	2.876686852845
1	200	126.492178156535	2.277168153176
1	204	127.075924223109	0.238792075072
1	208	127.38535242911	0.142113963761
1	212	128.681507125762	0.234054350542
1	226	134.393506115722	5.44633951345
1	228	135.091304585662	4.75869169104
1	230	135.205983610675	2.372481774288
1	232	135.815013591474	2.415072116294
1	234	137.126258200681	3.327922585457
1	236	138.452361836709	4.420839137823
1	240	139.773011978541	0.970070126326
1	246	142.689494999376	0.97040437584
1	248	142.852217047288	0.324535360756
1	252	146.110341180011	0.772784821293
1	256	148.401371873891	0.128228045594
1	260	150.28354482755	0.166084714145
1	264	152.52436207414	0.598161711587
1	270	156.932869758419	0.560492776783
1	272	158.255859145885	1.695086261004
1	276	158.418981346937	0.076418464076
1	280	160.551882186115	0.326819134084
1	284	161.10398484959	0.180675442703
1	288	163.84631702236	0.709455725928
1	292	168.190584919867	0.865719183324
1	296	170.020991064958	1.017791838153
1	300	171.292184267375	0.240831183103
1	304	172.062045101688	0.540559403435
1	310	175.090161010788	0.628885276704
1	312	175.176884298225	0.180088880721
1	316	178.37465460663	0.844604954741
1	322	178.767897673828	0.25944137923
1	326	178.804281320215	0.175070121391
1	330	182.143329040737	3.371205510724
1	332	182.220923025985	0.115248373127
1	338	184.165213187018	1.311113577981
1	342	184.863634095605	0.989259939266
1	344	184.960817947733	0.439841806924
1	348	186.193099872659	0.742231024311
1	352	189.601900702688	0.569546374586
1	360	195.12161637472	0.794109398617
1	362	198.107532346708	3.213792892387
1	366	203.415960216014	8.492810430161
1	368	204.501611091031	4.111510983644
1	374	205.612090918902	0.437157456866
1	376	206.19040521765	0.857021615054
1	380	208.354790136956	1.493950281131
1	384	210.001454589953	0.990719660417
1	388	216.584830231663	0.103130691753
1	392	218.80783036	1.054364012478
1	398	224.441768656686	3.461457319477
1	400	224.712202952941	1.9995537066
1	404	229.024944774304	0.498771487584
1	408	230.79570200818	0.086282784351
1	416	232.560855355988	1.734722260629
1	418	232.734427202383	1.201025892412
1	420	232.913551575474	0.578038155331
1	426	233.19716825321	0.178092565566
1	428	233.522848109824	0.468417235677
1	432	236.368142083144	0.007087578951
1	436	238.485190315613	1.381329118889
1	444	241.995704457754	1.922881626024
1	446	242.334070224661	1.948386189754
1	448	242.69381403352	1.846772595577
1	452	246.689097533155	0.642701933095
1	456	249.176193256255	1.348287719727
1	462	253.21456298913	1.051644417453
1	464	253.526015652822	1.150769042444
1	468	256.02877612803	0.493102407713
1	472	260.102347061346	2.356417231558
1	486	263.344320861043	1.312457346544
1	488	265.536424021371	3.35672886162
1	492	266.140448837041	3.674526269293
1	494	266.335940172728	3.71139835418
1	496	266.564738428686	3.811368084916
1	500	267.401370576823	4.185955538939
1	506	269.709883488556	3.648968213954
1	508	271.11754248603	3.99217080797
1	516	272.282269215664	4.30475144627
1	518	272.816686949886	3.776435801131
1	520	273.294413408259	1.37621819546
1	522	273.947620470615	1.743798743817
1	524	274.595561059079	2.372661872891
1	528	276.221915160443	0.139438746408
1	532	276.925995613456	0.317725389711
1	538	280.957522260609	2.91577518474
1	546	281.600652462163	2.413079107756
1	550	282.403942760055	1.265870345037
1	552	283.373289411904	2.121039822231
1	556	284.197459931194	2.614454619931
1	558	286.903598630561	4.713000450227
1	560	287.463209862069	3.523817115162
1	564	290.892853927446	3.172158078172
1	568	292.877446450199	0.217771008679
1	572	297.348717278316	0.726888665501
1	576	301.42307804573	0.513486175706
1	580	302.092570782134	0.326861491118
1	586	303.346846307457	0.926567084344
1	588	303.429871906891	0.220322496099
1	592	305.702208698403	0.683489784558
1	598	308.743610939534	0.642590926776
1	600	310.074680411797	1.495797900075
1	606	312.179546589205	0.347370234675
1	608	312.424282679494	0.549336697727
1	612	312.704823279618	0.230143766502
1	620	317.432261077783	4.020185139212
1	622	317.475490502096	3.795342914824
1	628	320.662019394834	4.015936002538
1	630	321.339879431546	3.487462034468
1	632	321.92131894867	2.910512539073
1	636	324.067153745515	0.527568317014
1	640	327.272339498411	1.081649484673
1	648	331.979018504794	2.717817890644
1	650	334.196062127288	3.70264291572
1	656	334.83942022738	3.82783663681
1	660	335.886365556936	1.61001386834
1	662	336.255812652885	1.781692730689
1	666	337.191016504675	1.354682231462
1	668	337.256375705177	0.83023859782
1	674	339.606493361273	0.8474025851
1	676	339.702430908218	0.414825438395
1	680	341.587052192315	0.735082596192
1	684	343.101598413544	0.910438901613
1	692	347.803459509456	1.481226641683
1	694	348.256789395448	1.650767801165
1	698	349.276429156739	2.406014760173
1	702	350.053755850731	1.693988735121
1	704	350.362433379639	0.496939137605
1	710	351.803193289999	0.372482785138
1	712	352.388511045809	0.846087516517
1	718	353.93840665591	0.472962955783
1	720	354.776159758755	1.016065938664
1	724	355.42172635499	0.532517830336
1	732	368.192645138778	3.066196103586
1	738	369.898333275451	4.043500386377
1	750	375.301908139646	8.758000623444
1	754	375.87141863074	7.511466030582
1	758	377.300861074645	7.655673220333
1	760	378.14841004802	7.392416000517
1	762	379.418152433711	7.987228226901
1	764	380.583084618701	8.641359463448
1	768	381.168762700351	7.269964607409
1	774	384.057652217028	8.947402231085
1	776	384.216491738315	8.750421629028
1	782	388.078337707177	11.062979151427
1	784	388.582379721977	7.601909271177
1	790	389.12729962818	7.08485266433
1	796	390.736905772809	8.204132821871
1	812	394.545764653732	8.283000824637
1	818	395.27319242133	8.422478594934
1	820	395.7597214756	7.019244906464
1	824	396.339437402473	7.457162878826
1	826	398.266859352219	8.490594674554
1	828	398.370387417305	7.727425175748
1	832	398.807497796151	8.022127248412
1	834	399.541320632396	8.679932448233
1	836	399.63768850903	8.260763287709
1	840	403.019171942002	11.19772313618
1	842	403.962224971008	10.348313159892
1	844	404.556497296081	10.439807431481
1	848	405.56387800068	11.10873242949
1	850	406.36796295215	11.29798378775
1	854	406.91565654742	11.816445808509
1	858	408.540541516272	12.23174168952
1	860	408.950863385158	10.346151941886
1	862	409.061858161492	8.086228885563
1	864	409.456444921556	4.24281441817
1	866	409.464260259108	2.588980052859
1	868	409.586361503552	1.259554855686
1	872	413.696328228294	1.702412268272
1	878	414.436859597226	0.105859863204
1	880	414.537461030259	0.165279193059
1	886	422.017840335906	1.194060415358
1	890	424.806318841391	2.84087726468
1	894	424.910132444146	2.599577478087
1	896	425.257531950166	0.449506181427
1	900	430.658329850738	0.139474085727
1	904	433.10354635384	0.506956754883
1	908	436.739575199364	0.839466067043
1	920	441.072715764628	1.770954351706
1	922	441.903670570249	2.343078625285
1	924	442.410041539737	2.713406873601
1	932	446.309480789941	5.494095756102
1	934	446.406349464179	5.354220186748
1	936	446.67327873451	2.623259679388
1	940	446.833916858817	1.516457301002
1	942	447.382431558923	1.826964526134
1	954	450.959736242227	4.199793357605
1	956	451.113522249767	3.585631900866
1	958	451.348529136992	3.185682965719
1	960	452.062052787714	3.718240794232
1	962	452.630541618495	4.208332519186
1	964	452.84453395318	2.422509801658
1	968	454.270437188376	0.025478806881
1	972	456.104208085354	0.71797567238
1	976	457.795766366161	0.587724625749
1	988	462.028955628837	1.114169224483
1	990	462.507171072323	1.521394846948
1	992	463.068066467447	1.83453675491
1	994	463.53540692162	1.735728405501
1	996	464.592984255553	2.645302014443
1	1002	469.882285807725	1.172495600513
1	1004	472.859140987222	3.830088843179
1	1008	475.678687075126	1.109837572345
1	1012	477.380882757526	0.202035661257
1	1018	481.035433524395	1.050505642542
1	1020	482.710463044613	2.41128186437
1	1024	488.666297474781	1.836497270712
1	1028	491.056481506219	0.624822076683
1	1032	492.79181911107	1.10673858814
1	1040	495.428238821121	2.539694415157
1	1044	496.396304877927	2.081513474857
1	1046	497.41777013989	2.585206084914
1	1052	500.616673880084	4.417618508276
1	1054	504.130301277124	6.697533905087
1	1056	507.024350732903	7.662380317083
1	1062	511.36842865317	3.217469491745
1	1066	511.663448115864	2.313000600108
1	1070	512.617442967929	0.986246271751
1	1072	513.296573800187	0.689749896742
1	1076	515.288561988482	0.653454139142
1	1080	517.097505646446	0.407947838663
1	1084	518.687029453111	0.616319796957
1	1090	522.163863964327	0.69440536292
1	1092	522.236776794291	0.477400164739
1	1098	532.845478487968	0.426851313942
1	1100	533.182319705032	0.50285951391
1	1104	536.583171178608	0.458715272461
1	1108	542.449614132449	1.782832711357
1	1114	543.286322728057	0.755973010636
1	1116	543.521044259581	0.959275052119
1	1120	544.365787930111	0.320225273649
1	1126	548.393349825311	2.588499111554
1	1128	548.547749671097	2.285686519733
1	1134	549.745640841531	0.474604896819
1	1138	550.386572002721	1.070235102411
1	1142	551.207050218294	0.937298239693
1	1146	554.871157386846	4.092799469199
1	1148	555.419904070334	2.218909832859
1	1154	558.133362463701	0.404159769579
1	1156	559.907611303737	1.890812859832
1	1168	564.538160975112	3.284896809725
1	1170	566.047715877301	4.204327121245
1	1172	567.367017967538	4.270220837866
1	1174	567.653631702145	4.430407299144
1	1176	567.85714869859	4.539488740429
1	1180	573.294676589171	0.118636380244
1	1184	578.416832516174	0.078155718122
1	1188	579.839255853547	0.959707049162
1	1192	589.186209485935	0.381591318032
1	1200	591.773651126735	0.749255498486
1	1204	592.468663896706	1.340555507304
1	1206	592.618027995429	1.143011089569
1	1208	593.472491888813	1.600381437677
1	1212	600.522391850562	1.814938726603
1	1216	601.757196001994	0.406002012764
1	1222	604.599242182237	2.378682988089
1	1226	605.196363586378	2.663649833636
1	1228	605.70815660752	0.767764415724
1	1234	612.346729304445	1.571281948121
1	1236	612.865557497596	0.863225431464
1	1240	615.753455971326	2.151841575023
1	1244	616.930735678667	0.527683065801
1	1248	617.035139617079	0.100995514602
1	1252	618.125634789065	0.659472025159
1	1256	623.911446570589	1.472729270677
1	1260	624.110723710438	0.155084702549
1	1264	628.460967158554	0.206951215243
1	1268	631.793591859371	1.169707453251
1	1280	642.546403397291	4.14397858562
1	1282	642.913155823263	3.201285092355
1	1284	643.506581306003	3.758372622727
1	1286	644.260985263949	4.158526398734
1	1288	645.751174509101	5.181981588404
1	1294	653.310526045743	1.043837047995
1	1300	656.69601976402	3.493617632992
1	1302	658.665183598498	3.426089211577
1	1304	659.12351768708	3.593478056819
1	1308	659.671424060521	0.35328743492
1	1312	662.627751444293	0.811050937984
1	1316	663.761621832131	0.571934061294
1	1320	665.93156828923	0.286826990104
1	1324	668.28961482953	0.698783739722
1	1328	669.592348832881	0.645160409344
1	1332	677.582138009346	1.09665062767
1	1338	683.485170453652	5.125280086772
1	1342	684.238660824486	1.292149469415
1	1344	688.347627654323	4.725855206961
1	1348	691.171099031897	1.785626663747
1	1352	691.832158195286	0.435492914098
1	1358	692.794890159083	0.795384894495
1	1364	695.20657234974	2.489206811512
1	1366	695.578565523799	1.10932364068
1	1368	695.827172468929	0.747189797047
1	1378	699.318648324127	3.344573793816
1	1380	701.791359357011	5.454226814974
1	1382	702.313008776401	5.507386321084
1	1384	702.395564374012	5.003903386691
1	1388	704.623041464001	0.194339869328
1	1392	707.427172336132	1.354290750866
1	1398	713.337524808288	3.215847643037
1	1400	713.677674801542	1.640998251859
1	1404	714.724920846911	0.531685383939
1	1408	717.514938810788	0.677344938654
1	1414	726.223699550152	0.666908863739
1	1416	727.249825249943	1.144179076974
1	1424	735.213356423353	5.022079392059
1	1426	735.597106858305	3.95983089904
1	1432	738.657851930332	4.772221893451
1	1438	739.796457829315	3.728750082684
1	1440	740.49262934919	2.741108600423
1	1444	742.771648596336	3.355491041609
1	1452	746.838909697964	7.301827015767
1	1454	747.081809425082	5.066477725623
1	1456	747.157595195727	2.676695493157
1	1460	748.336583970273	2.275034315582
1	1462	748.408211743441	2.302665916334
1	1464	748.910014951205	1.444892441095
1	1468	750.97965199817	1.359927887714
1	1476	758.29291836103	2.909270075808
1	1478	759.586795678777	3.246267639596
1	1482	760.133099655532	2.296282689446
1	1486	761.422822460676	1.413173507651
1	1488	761.761879401759	1.495640504651
1	1492	764.326206312021	1.047109151698
1	1502	768.976738102219	4.185380404568
1	1506	769.947358634105	5.012962935795
1	1508	770.696436005209	4.350147353248
1	1512	773.360802102239	5.302865770931
1	1516	775.617084065091	6.433321720129
1	1518	775.823234589401	2.860764152541
1	1520	776.017124851003	1.790494677539
1	1524	788.100071729794	0.139416164524
1	1528	791.463036729679	1.245168434289
1	1534	795.389376807157	2.102962961752
1	1536	795.959696122423	1.06058593339
1	1544	799.544211556798	1.634597189311
1	1546	799.688199888528	1.487041826037
1	1548	801.237458294142	2.070318473439
1	1554	804.013815835847	2.281674849276
1	1556	805.24026712088	3.061969470911
1	1562	809.101844687003	0.58229099139
1	1566	812.849213747683	3.935253469481
1	1568	813.086559040477	2.377379185658
1	1572	815.045652385282	0.681349060318
1	1578	816.866012440472	0.6119831461
1	1580	816.999864264983	0.617469115757
1	1590	821.79889999481	4.460147698951
1	1592	823.466967141018	5.898574553818
1	1596	824.438008124813	5.062643327408
1	1598	824.462074775325	4.953522551738
1	1600	824.577327938903	1.079279835442
1	1604	827.325761431039	0.474230197868
1	1608	830.25912192513	0.252912994336
1	1616	832.913898527608	2.388250661872
1	1618	833.968932613006	3.272684791939
1	1620	834.21261306263	2.037789964756
1	1624	834.944801138378	0.616235893914
1	1632	839.906513823044	2.180990642138
1	1634	840.407492827552	1.2486884115
1	1636	840.877691594621	1.70334790279
1	1640	851.038170313983	0.652350419388
1	1646	853.530027947642	0.26089171214
1	1648	853.749201587319	0.38388015175
1	1652	861.356013955466	0.701290447663
1	1658	862.891475743159	0.652106479985
1	1660	866.618919801088	3.940622505788
1	1664	867.534773309048	0.05892413458
1	1668	868.133251299287	0.161473664166
1	1672	872.746768280277	0.329911356129
1	1676	874.44838629418	1.650398208015
1	1686	878.211282251648	1.689447053807
1	1688	878.704179141522	1.788149965957
1	1694	879.90491133266	1.979176786765
1	1696	879.922984859945	1.978049499157
1	1700	880.869943698922	1.069991431445
1	1702	881.296769851251	1.468917791352
1	1704	881.618474060854	0.780102806344
1	1708	885.382274061767	1.24611198228
1	1714	896.480359155863	1.303177937223
1	1716	897.176509499863	0.845705958193
1	1720	899.874782790383	0.158543744095
1	1726	903.182542615047	0.582189065651
1	1728	904.271649831939	1.611004487027
1	1732	918.832303876541	1.398207052435
1	1736	921.036222639927	0.043285781279
1	1742	925.966012144284	2.520904200637
1	1746	928.410481666587	2.936643417732
1	1748	928.528489340359	2.154693583526
1	1752	930.393042832033	0.686445364833
1	1756	931.131740330872	0.323458628175
1	1760	931.790560430486	0.625599235633