version 3
run General-21-20221103-09:44:57-15908
attr configname General
attr datetime 20221103-09:44:57
attr datetimef 20221103-094457
attr experiment General
attr inifile simu_1.ini
attr iterationvars ""
attr iterationvarsd ""
attr iterationvarsf ""
attr measurement ""
attr network Rete
attr processid 15908
attr repetition 21
attr replication #21
attr resultdir results
attr runnumber 21
attr seedset 21
config network Rete
config record-eventlog true
config repeat 30
config sim-time-limit 1000s
config simtime-resolution ps
config **.Servente.serviceTime exponential(1s)
config **.Arrivi.interArrivalTime exponential(2s)

vector 0 Rete.Servente queueLength:vector ETV
attr interpolationmode sample-hold
attr recordingmode vector
attr title "queue length"
vector 1 Rete.Pozzo lifeTime:vector ETV
attr interpolationmode none
attr recordingmode vector
attr title "lifetime of arrived jobs"
attr unit s
0	0	0	0
0	24	14.45312534314	1
0	25	14.471915063796	0
0	44	24.134868778683	1
0	46	24.342402785223	2
0	48	24.628390291888	3
0	49	24.912199807813	2
0	51	25.108366357936	1
0	53	25.578825787924	0
0	60	28.690223870141	1
0	61	29.573808959735	0
0	68	36.17615454306	1
0	70	37.921463890623	2
0	71	39.036327750624	1
0	73	39.728429424782	0
0	100	59.520104880862	1
0	102	60.049581283265	2
0	103	60.257612895076	1
0	105	60.568181357592	0
0	112	61.681725198961	1
0	113	61.858495011859	0
0	128	67.656445926535	1
0	129	68.087000847263	0
0	160	84.533878998528	1
0	161	84.851202776828	0
0	168	91.730043890671	1
0	169	91.909658932113	0
0	180	96.983846767995	1
0	181	97.17161169941	0
0	192	105.467879370618	1
0	193	105.920205967033	0
0	200	109.095583542876	1
0	202	109.756736162629	2
0	203	110.237325711746	1
0	206	110.968438959099	2
0	207	111.484679082911	1
0	210	111.69876113977	2
0	211	111.960629620718	1
0	213	112.870416338932	0
0	232	121.642413424721	1
0	234	121.932528920503	2
0	235	122.418997483525	1
0	238	122.726753854996	2
0	239	123.430356004285	1
0	241	123.976718579801	0
0	248	126.707162576372	1
0	249	127.087963224576	0
0	264	138.548959889163	1
0	266	138.717412453062	2
0	267	138.897314467727	1
0	269	139.390750178041	0
0	272	139.952180491249	1
0	274	140.173734309974	2
0	275	141.386481318788	1
0	278	142.596160828986	2
0	280	142.963946574295	3
0	281	144.499211459679	2
0	283	144.696743886004	1
0	285	145.16654465391	0
0	288	145.487183168336	1
0	289	147.063031675471	0
0	308	157.792077442229	1
0	310	157.852565767852	2
0	311	158.514411817518	1
0	313	159.070360641904	0
0	320	162.665780577541	1
0	321	164.35201093159	0
0	352	176.034875323542	1
0	353	177.147636539131	0
0	364	180.256772920899	1
0	365	181.398008535213	0
0	376	188.342019858227	1
0	377	190.425784033771	0
0	416	203.435941207444	1
0	417	204.327992343957	0
0	428	212.000947504989	1
0	429	212.253396305932	0
0	440	217.786084926996	1
0	442	218.061644766698	2
0	443	220.648854306904	1
0	446	221.771288155837	2
0	447	222.814316512923	1
0	449	223.06032481502	0
0	456	226.029194304129	1
0	457	226.612236803399	0
0	460	227.198513288661	1
0	461	227.931124821118	0
0	472	231.294487990804	1
0	473	232.084401177252	0
0	492	240.551076196011	1
0	493	240.944659062585	0
0	504	244.575632931363	1
0	505	244.897330248166	0
0	512	252.179487678238	1
0	513	252.522840615106	0
0	528	257.748954136277	1
0	529	259.283403102545	0
0	548	274.485596500608	1
0	549	274.867031991773	0
0	556	276.101097767559	1
0	557	276.801151386164	0
0	560	276.803825593045	1
0	561	277.101386802789	0
0	576	285.702564502832	1
0	577	286.213096018819	0
0	584	288.846340603946	1
0	585	288.890287959779	0
0	616	303.179467067144	1
0	617	303.195442075211	0
0	624	304.993166765268	1
0	626	305.536904373529	2
0	627	306.110641000282	1
0	630	306.360905555386	2
0	632	306.796248630171	3
0	633	307.043861582499	2
0	635	307.46236626871	1
0	638	307.620102703166	2
0	639	307.654188031225	1
0	641	307.78915302039	0
0	652	311.136240710697	1
0	654	312.009590808779	2
0	655	312.932230071479	1
0	657	313.157130939467	0
0	660	313.558869062341	1
0	661	314.518791755218	0
0	664	315.315000104217	1
0	666	315.425502955003	2
0	668	316.065806304492	3
0	669	316.799698624535	2
0	672	316.898645840691	3
0	673	317.562057675519	2
0	675	317.704997117918	1
0	677	317.881150362107	0
0	680	318.511288969643	1
0	682	319.437762092374	2
0	683	321.147515949581	1
0	685	322.348446301805	0
0	688	322.785244855817	1
0	689	323.402302253354	0
0	696	326.884518636414	1
0	697	329.081852700929	0
0	708	332.816239751207	1
0	709	335.093210916294	0
0	720	345.547563278468	1
0	722	345.861360924712	2
0	723	345.974401243552	1
0	726	348.282245555204	2
0	727	348.899329453767	1
0	730	349.002834435183	2
0	731	350.737245967921	1
0	733	351.399876330785	0
0	740	358.344895104564	1
0	742	358.570566569654	2
0	744	358.847725733844	3
0	745	358.951066316409	2
0	748	359.765676961436	3
0	749	361.716705932136	2
0	751	363.131844442783	1
0	753	364.479878708818	0
0	760	366.726091950608	1
0	762	367.262807482833	2
0	763	367.382319146078	1
0	766	367.776650871791	2
0	767	368.314318270923	1
0	769	368.435747043748	0
0	776	369.328575792842	1
0	777	369.356077278219	0
0	780	369.754795274748	1
0	782	369.973160352157	2
0	783	371.043819640652	1
0	785	371.344294456937	0
0	804	386.714051827491	1
0	806	386.979165243203	2
0	807	387.124108336268	1
0	810	388.112804630518	2
0	812	388.444606170658	3
0	814	388.888529390763	4
0	815	390.992990433297	3
0	817	392.017808140581	2
0	819	392.463055271457	1
0	822	392.743628151163	2
0	824	392.959490289268	3
0	825	393.19566615995	2
0	827	393.233627469918	1
0	829	395.686649089222	0
0	856	416.991688013837	1
0	858	417.694517088307	2
0	859	418.101959969026	1
0	861	418.527948729219	0
0	864	420.11041480125	1
0	866	420.114196384231	2
0	867	420.494420271369	1
0	869	421.800855626869	0
0	876	423.909834384679	1
0	877	424.060297636353	0
0	892	432.168858333285	1
0	893	432.296303006847	0
0	900	433.411885275966	1
0	901	434.385380432771	0
0	920	443.62593175403	1
0	921	443.841756479402	0
0	928	445.160445283093	1
0	929	445.211644646316	0
0	936	448.686594816247	1
0	937	448.796157143834	0
0	944	455.90232023058	1
0	946	456.895894333536	2
0	948	456.95044349469	3
0	950	458.917212126509	4
0	952	460.404617607443	5
0	953	460.760079692566	4
0	955	460.804626378017	3
0	958	462.128090948208	4
0	959	463.007584690357	3
0	961	465.763256662451	2
0	964	465.839582640582	3
0	965	466.780226126539	2
0	967	467.284331126046	1
0	969	468.123394054791	0
0	980	471.674936049722	1
0	981	471.788261951943	0
0	984	474.013038793187	1
0	985	474.203835774457	0
0	988	475.094990969156	1
0	989	477.21864498075	0
0	1000	481.876071687918	1
0	1001	482.884814003588	0
0	1008	486.863252561729	1
0	1010	488.660293731153	2
0	1011	490.754488211259	1
0	1014	491.504954022807	2
0	1015	492.154751906296	1
0	1017	492.740401368827	0
0	1024	497.543421118732	1
0	1025	498.37186468411	0
0	1028	498.637125749526	1
0	1030	499.114390869299	2
0	1031	499.722273524325	1
0	1033	501.234523614118	0
0	1040	503.873495658184	1
0	1041	504.963552095813	0
0	1044	505.3215227887	1
0	1045	506.836533740085	0
0	1048	506.894831498036	1
0	1049	509.021188905114	0
0	1060	519.817927019259	1
0	1062	520.350878091861	2
0	1063	520.610214273511	1
0	1065	520.694575789894	0
0	1068	520.853790225987	1
0	1069	521.259632821689	0
0	1076	524.443278038598	1
0	1078	525.875862842698	2
0	1079	526.985853115816	1
0	1081	527.772150813167	0
0	1084	528.085742567522	1
0	1086	529.872854450833	2
0	1088	530.187438166068	3
0	1089	530.275646168139	2
0	1091	530.876054430266	1
0	1093	532.092192610318	0
0	1104	536.347775196354	1
0	1105	536.657349359412	0
0	1108	537.534307679322	1
0	1110	537.708100968583	2
0	1111	537.791775065028	1
0	1114	538.341533348011	2
0	1115	538.658335250925	1
0	1117	539.587427175964	0
0	1120	540.387104287121	1
0	1121	541.706233411711	0
0	1132	559.752717475903	1
0	1133	560.670107250919	0
0	1140	562.309647108924	1
0	1141	562.463186705991	0
0	1144	563.373530677003	1
0	1145	563.641950616078	0
0	1168	575.540929060173	1
0	1169	576.669058202051	0
0	1180	579.525864183554	1
0	1182	580.269976799934	2
0	1184	581.223223009425	3
0	1185	581.335110449858	2
0	1187	582.042729206114	1
0	1190	582.986873051352	2
0	1191	585.796438839618	1
0	1194	586.162293119198	2
0	1196	586.98130285891	3
0	1197	587.231493486896	2
0	1199	587.236473550079	1
0	1201	587.695071136935	0
0	1212	596.462435387573	1
0	1213	596.722473210723	0
0	1220	597.913408229676	1
0	1221	598.552538583765	0
0	1232	608.842341486493	1
0	1233	609.024755959008	0
0	1244	614.187191148659	1
0	1245	615.530484048839	0
0	1248	616.194842824644	1
0	1249	618.270518915072	0
0	1264	622.565339626146	1
0	1266	622.656502550329	2
0	1267	623.118524068572	1
0	1269	623.964522213335	0
0	1272	624.505857589886	1
0	1273	625.416979684438	0
0	1288	631.646555742377	1
0	1290	632.339258659532	2
0	1291	632.742699628357	1
0	1293	632.822560605235	0
0	1300	634.497554084752	1
0	1301	634.734761114343	0
0	1352	656.513620599805	1
0	1354	657.370982083858	2
0	1355	659.482952672903	1
0	1357	659.547387690468	0
0	1380	674.503010697396	1
0	1381	674.963318573221	0
0	1408	695.168341406878	1
0	1409	695.2091024031	0
0	1412	695.692019098032	1
0	1414	696.148200084809	2
0	1415	696.423773282406	1
0	1417	696.550584384	0
0	1420	697.361345267315	1
0	1421	697.813811343448	0
0	1432	700.416169547278	1
0	1433	702.753408988326	0
0	1440	708.557225386309	1
0	1441	708.644185141565	0
0	1444	709.329788791994	1
0	1446	710.538161184342	2
0	1447	712.503663430501	1
0	1450	714.557698667581	2
0	1451	715.06085766242	1
0	1453	715.487606509601	0
0	1468	729.648825127534	1
0	1470	730.322462167484	2
0	1472	731.483071084331	3
0	1473	731.91833342892	2
0	1476	732.392726947238	3
0	1477	732.669485733942	2
0	1479	732.778754755949	1
0	1482	733.145969100545	2
0	1483	733.799619480829	1
0	1486	733.949811012946	2
0	1488	734.255639087009	3
0	1490	735.416066495614	4
0	1491	736.528413995451	3
0	1493	736.716867913897	2
0	1496	740.136025728369	3
0	1497	742.080511648155	2
0	1499	744.323944383708	1
0	1501	744.815698955127	0
0	1504	745.174543294207	1
0	1505	746.009981467912	0
0	1528	757.887348237712	1
0	1530	758.342110713873	2
0	1532	759.296862900634	3
0	1533	759.982045731958	2
0	1535	760.338245834827	1
0	1537	761.090081831033	0
0	1548	765.707405966103	1
0	1550	766.840285574164	2
0	1551	767.658033808859	1
0	1553	767.890673416827	0
0	1556	768.344854554137	1
0	1558	768.392111085754	2
0	1560	769.849644009617	3
0	1561	770.05655885645	2
0	1564	771.433860998859	3
0	1565	773.360865618518	2
0	1567	773.658483343151	1
0	1569	774.731412675104	0
0	1600	801.165263219914	1
0	1602	801.394324955766	2
0	1603	801.566701840225	1
0	1605	802.451005096412	0
0	1628	821.768674592224	1
0	1630	821.814856286069	2
0	1631	822.413480597642	1
0	1634	823.480744872711	2
0	1636	827.843007496065	3
0	1638	828.337160283003	4
0	1639	828.945840307145	3
0	1641	829.317549701783	2
0	1643	831.822800838586	1
0	1645	832.224039456438	0
0	1656	837.382128996807	1
0	1657	837.456513599542	0
0	1660	837.504783340871	1
0	1661	838.060997004949	0
0	1664	839.067743785029	1
0	1665	839.552369079674	0
0	1672	840.389674741449	1
0	1673	841.127424348445	0
0	1696	859.453290466399	1
0	1698	859.566136894433	2
0	1699	859.646027950259	1
0	1701	860.049157843343	0
0	1704	861.396457347535	1
0	1705	861.399164459219	0
0	1712	864.906828355036	1
0	1713	864.931168712758	0
0	1732	878.176672900102	1
0	1733	879.31107215914	0
0	1736	880.375247937031	1
0	1737	880.37579857563	0
0	1764	905.905924512594	1
0	1765	906.098927453948	0
0	1768	907.53057491098	1
0	1770	908.132989030745	2
0	1771	909.55529274048	1
0	1773	909.765037306191	0
0	1776	910.017176474032	1
0	1777	910.108602103258	0
0	1780	910.405598159906	1
0	1782	910.432244266487	2
0	1783	911.778445531513	1
0	1786	913.474013711379	2
0	1787	914.152674994247	1
0	1789	914.261967726589	0
0	1792	914.493129407906	1
0	1793	914.716855027924	0
0	1796	915.363897891081	1
0	1797	915.63343677199	0
0	1800	915.983461384345	1
0	1801	917.313547188095	0
0	1816	928.844296032539	1
0	1818	929.121285028887	2
0	1820	929.835749711321	3
0	1821	929.943624584829	2
0	1823	930.051741353209	1
0	1825	930.162611506243	0
0	1836	937.388408902207	1
0	1838	938.31202853158	2
0	1839	941.084741260057	1
0	1841	941.086419794166	0
0	1848	944.26385265012	1
0	1849	944.401119558105	0
0	1888	970.795364156367	1
0	1890	971.164975288999	2
0	1892	972.290504213471	3
0	1893	973.066059135048	2
0	1896	973.315056461913	3
0	1897	973.604685962138	2
0	1899	974.173072203271	1
0	1902	974.380445384691	2
0	1903	975.787900391753	1
0	1906	976.319276053876	2
0	1908	976.696722265478	3
0	1909	977.061074013502	2
0	1911	977.163675876249	1
0	1914	978.019588938466	2
0	1915	978.93015235337	1
0	1917	980.347319531313	0
0	1920	981.438787817601	1
0	1921	982.097899168747	0
0	1928	987.809396008055	1
0	1930	988.002215784982	2
0	1932	988.584277343089	3
0	1933	988.639973205598	2
0	1935	989.074035087037	1
0	1938	991.29674999726	2
0	1939	991.679821464993	1
0	1941	992.369202730064	0
1	4	0.441141014167	0.341237094988
1	8	4.587934564152	1.276422896144
1	12	5.611247373082	0.021853301875
1	16	5.893603004907	0.230574551167
1	20	11.771604832114	0.052107586617
1	26	14.471915063796	0.359925779309
1	28	15.562292240318	1.109166897178
1	32	18.565505618654	0.368334640336
1	36	19.90531394366	0.876088005067
1	40	22.579887183854	0.072109463643
1	50	24.912199807813	2.020452057854
1	52	25.108366357936	0.973497579253
1	54	25.578825787924	1.236423002701
1	56	26.263865032691	1.635474740803
1	62	29.573808959735	1.992894318922
1	64	30.996534299174	2.306310429033
1	72	39.036327750624	3.522860809749
1	74	39.728429424782	3.552274881722
1	76	40.213343717626	2.291879827003
1	80	41.295355726677	0.525462777457
1	84	42.707403448921	1.249529677607
1	88	43.460946335273	0.31562866005
1	92	49.241293102718	1.924853484968
1	96	54.980147218258	2.443733629731
1	104	60.257612895076	1.430271634633
1	106	60.568181357592	1.04807647673
1	108	60.751906821377	0.702325538112
1	114	61.858495011859	0.354808528928
1	116	62.19249058349	0.510765384529
1	120	64.857494861874	0.396325866421
1	124	66.05122581651	0.616446055245
1	130	68.087000847263	0.786070595182
1	132	68.332135521671	0.675689595136
1	136	70.291854584342	1.608779772704
1	140	73.243302206223	1.297128269816
1	144	75.395610518041	1.892415821615
1	148	76.648124021186	0.311321707265
1	152	78.306932479066	0.954056739804
1	156	81.644190699134	1.057727785134
1	162	84.851202776828	0.489090931374
1	164	85.379435995217	0.845556996689
1	170	91.909658932113	1.661560772546
1	172	92.826873248379	1.096829357708
1	176	95.924929283444	2.286124750437
1	182	97.17161169941	0.67340774
1	184	98.933723788179	1.949877020184
1	188	103.409368914479	1.958211823812
1	194	105.920205967033	1.553270924396
1	196	108.106390691642	2.638511321024
1	204	110.237325711746	1.200182642207
1	208	111.484679082911	2.389095540035
1	212	111.960629620718	2.203893458089
1	214	112.870416338932	1.901977379833
1	216	113.020849364124	1.322088224354
1	220	115.642284833802	0.512988796041
1	224	118.032611957569	0.262940440422
1	228	119.32059936919	0.892715230331
1	236	122.418997483525	2.17391098008
1	240	123.430356004285	1.787942579564
1	242	123.976718579801	2.044189659298
1	244	125.573501115172	2.846747260176
1	250	127.087963224576	1.095697463726
1	252	127.367825937181	0.660663360809
1	256	134.342394052483	1.711228367044
1	260	135.581683064868	0.630362422981
1	268	138.897314467727	1.343651536414
1	270	139.390750178041	0.841790288878
1	276	141.386481318788	2.669068865726
1	282	144.499211459679	4.54703096843
1	284	144.696743886004	4.52300957603
1	286	145.16654465391	2.570383824924
1	290	147.063031675471	4.099085101176
1	292	147.517338739129	2.030155570793
1	296	151.871022783094	0.479706772405
1	300	151.972050283389	0.042080588082
1	304	155.342757359341	1.005567605964
1	312	158.514411817518	1.63055096943
1	314	159.070360641904	1.278283199675
1	316	159.286979883351	1.434414115499
1	322	164.35201093159	1.947307637467
1	324	164.546481461925	1.880700884384
1	328	165.763665519024	0.467640181831
1	332	166.734303421693	0.481717994204
1	336	167.597322789055	0.845471242175
1	340	170.421997477732	0.71567240094
1	344	171.31920990307	0.75306133881
1	348	174.442805328587	0.740663829574
1	354	177.147636539131	2.686448594172
1	356	177.430763574763	1.395888251221
1	360	177.884771330665	0.233576600926
1	366	181.398008535213	1.692984696043
1	368	181.760223066338	1.503450145439
1	372	186.907774000188	1.125138177773
1	378	190.425784033771	2.572532690087
1	380	190.498321841015	2.156301982788
1	384	192.169835736833	1.522203159528
1	388	192.241258571172	0.035733909682
1	392	193.958526525811	0.711473410956
1	396	194.956716460853	0.577663096214
1	400	197.897353561805	1.172867552418
1	404	199.513910203986	1.510709173088
1	408	201.682124201329	0.048380836223
1	412	201.989083555902	0.077487277447
1	418	204.327992343957	0.92847601101
1	420	205.574003169096	2.138061961652
1	424	206.865860139288	0.163430578487
1	430	212.253396305932	0.953898054714
1	432	212.416916894885	0.415969389896
1	436	213.13440471676	0.619399104506
1	444	220.648854306904	3.925274524213
1	448	222.814316512923	5.028231585927
1	450	223.06032481502	4.998680048322
1	452	223.681707632789	1.910419476952
1	458	226.612236803399	2.486190920437
1	462	227.931124821118	1.901930516989
1	464	227.933227533807	0.734714245146
1	468	231.114329834568	1.117578773285
1	474	232.084401177252	0.8645193871
1	476	232.736417025186	1.441929034382
1	480	234.029398915201	0.572912282073
1	484	234.754219603922	0.451471541144
1	488	237.609168928948	0.334275229475
1	494	240.944659062585	1.478521484929
1	496	242.202802058411	1.6517258624
1	500	242.767898057907	0.17772921222
1	506	244.897330248166	1.430069747523
1	508	246.438306898622	1.862673967259
1	514	252.522840615106	1.341728709305
1	516	252.782650139659	0.603162461421
1	520	253.344392743467	0.400793258782
1	524	254.245388294104	0.323146529748
1	530	259.283403102545	2.278852982557
1	532	261.875306195097	4.12635205882
1	536	266.076431864966	0.963842512249
1	540	266.661790809743	0.150013429631
1	544	273.166641380098	0.147953848518
1	550	274.867031991773	0.455498131233
1	552	274.989730321007	0.504133820399
1	558	276.801151386164	0.71709706513
1	562	277.101386802789	1.00028903523
1	564	277.218457722113	0.414632129068
1	568	279.695426491158	0.208395402725
1	572	282.207470024293	0.3915017973
1	578	286.213096018819	1.095235417066
1	580	286.587003117784	0.884438614952
1	586	288.890287959779	0.742229775181
1	588	289.296405899642	0.450065295696
1	592	290.073020185804	0.092482525904
1	596	292.162367708189	0.09242866779
1	600	296.04254761125	0.290743923624
1	604	297.107057000822	0.246231720866
1	608	298.250914689783	0.064740342713
1	612	302.318647710349	1.504074207351
1	618	303.195442075211	0.685441209438
1	620	303.515992607885	0.336525540741
1	628	306.110641000282	1.659854250352
1	634	307.043861582499	2.050694817231
1	636	307.46236626871	1.925461895181
1	640	307.654188031225	1.293282475839
1	642	307.78915302039	0.992904390219
1	644	308.121992089821	0.501889386655
1	648	310.163063004087	0.308777232721
1	656	312.932230071479	2.129818803753
1	658	313.157130939467	2.02089022877
1	662	314.518791755218	2.509200946439
1	670	316.799698624535	3.240829562194
1	674	317.562057675519	2.247057571302
1	676	317.704997117918	2.279494162915
1	678	317.881150362107	1.815344057615
1	684	321.147515949581	4.24887010889
1	686	322.348446301805	3.837157332162
1	690	323.402302253354	3.96454016098
1	692	323.62827160274	0.843026746923
1	698	329.081852700929	3.534367671001
1	700	329.118035513657	2.233516877243
1	704	331.97969136975	0.550319030795
1	710	335.093210916294	2.889828247934
1	712	335.47771192418	2.661472172973
1	716	340.064895848187	1.500199254191
1	724	345.974401243552	3.692550401694
1	728	348.899329453767	3.351766175299
1	732	350.737245967921	4.875885043209
1	734	351.399876330785	3.117630775581
1	736	351.903582675608	2.900748240425
1	746	358.951066316409	3.02226241272
1	750	361.716705932136	3.371810827572
1	752	363.131844442783	4.561277873129
1	754	364.479878708818	5.632152974974
1	756	364.527095357247	4.761418395811
1	764	367.382319146078	1.087293032892
1	768	368.314318270923	1.588226320315
1	770	368.435747043748	1.172939560915
1	772	369.150476048584	1.373825176793
1	778	369.356077278219	0.113775748051
1	784	371.043819640652	1.71524384781
1	786	371.344294456937	1.589499182189
1	788	372.233170414999	2.260010062842
1	792	377.055422700144	0.517937598934
1	796	381.366822152651	1.06675610018
1	800	383.828081490233	0.503753221691
1	808	387.124108336268	0.904409276056
1	816	390.992990433297	4.278938605806
1	818	392.017808140581	5.038642897378
1	820	392.463055271457	4.350250640939
1	826	393.19566615995	4.751059989292
1	828	393.233627469918	4.345098079155
1	830	395.686649089222	2.943020938059
1	832	396.295330766283	3.335840477015
1	836	396.887701833015	0.13713603968
1	840	399.869020604594	1.216501077462
1	844	407.80839978043	0.065495043667
1	848	408.00407284004	0.003035527146
1	852	412.584342480047	0.093376431562
1	860	418.101959969026	1.639187468057
1	862	418.527948729219	1.536260715382
1	868	420.494420271369	2.799903183062
1	870	421.800855626869	1.690440825619
1	872	422.060456398401	1.94626001417
1	878	424.060297636353	0.710688833654
1	880	424.838065903914	0.928231519235
1	884	429.740733471127	0.347724570283
1	888	430.994862055644	0.460790440772
1	894	432.296303006847	0.315072442188
1	896	432.394261424947	0.225403091662
1	902	434.385380432771	1.398901676817
1	904	435.696681224211	2.284795948245
1	908	436.053530055919	0.003632015629
1	912	437.742166896092	0.273949358343
1	916	438.715228640149	0.314323618302
1	922	443.841756479402	1.568563500355
1	924	444.549883885154	0.923952131124
1	930	445.211644646316	0.626772640094
1	932	445.51665620641	0.356210923317
1	938	448.796157143834	0.924201039325
1	940	450.884232683366	2.197637867119
1	954	460.760079692566	5.004577751981
1	956	460.804626378017	4.902306147437
1	960	463.007584690357	6.111690356821
1	962	465.763256662451	8.812813167761
1	966	466.780226126539	7.86301400003
1	968	467.284331126046	6.879713518603
1	970	468.123394054791	5.995303106583
1	972	468.49005261525	2.650469974668
1	976	468.690387208459	0.063306559899
1	982	471.788261951943	2.268623867363
1	986	474.203835774457	2.528899724735
1	990	477.21864498075	3.205606187563
1	992	479.740746120947	4.645755151791
1	996	479.849880853274	0.032320111013
1	1002	482.884814003588	2.08863161507
1	1004	482.927930346466	1.051858658548
1	1012	490.754488211259	3.943989829578
1	1016	492.154751906296	5.291499344567
1	1018	492.740401368827	4.080107637674
1	1020	494.133288737887	2.62833471508
1	1026	498.37186468411	2.366113294473
1	1032	499.722273524325	2.178852405593
1	1034	501.234523614118	2.597397864592
1	1036	501.262768767537	2.148377898238
1	1042	504.963552095813	1.139783803211
1	1046	506.836533740085	2.963038081901
1	1050	509.021188905114	3.699666116414
1	1052	509.063893275597	2.169061777561
1	1056	512.280328844376	0.650607362491
1	1064	520.610214273511	0.874262574753
1	1066	520.694575789894	0.876648770635
1	1070	521.259632821689	0.908754729828
1	1072	523.073749153746	2.219958927759
1	1080	526.985853115816	3.854586095435
1	1082	527.772150813167	3.328872774569
1	1090	530.275646168139	4.399783325441
1	1092	530.876054430266	2.790311862744
1	1094	532.092192610318	2.219338159485
1	1096	532.183923021008	1.99648485494
1	1100	535.015852515165	0.201986692739
1	1106	536.657349359412	0.772246008128
1	1112	537.791775065028	1.443999868674
1	1116	538.658335250925	1.124027571603
1	1118	539.587427175964	1.879326207381
1	1122	541.706233411711	3.3647000637
1	1124	543.106795624172	2.719691337051
1	1128	558.773998990512	0.844819908103
1	1134	560.670107250919	1.224990646511
1	1136	561.072030226278	1.319312750375
1	1142	562.463186705991	0.958044371654
1	1146	563.641950616078	1.332303507154
1	1148	563.688341363825	0.314810686822
1	1152	566.088228265524	0.037327017746
1	1156	566.577932581088	0.42218765902
1	1160	569.511882128628	1.662657755009
1	1164	573.438307873158	0.554035594653
1	1170	576.669058202051	1.98117576763
1	1172	577.016070873816	1.475141813643
1	1176	578.159215013915	0.363289214489
1	1186	581.335110449858	2.141758983941
1	1188	582.042729206114	2.51686502256
1	1192	585.796438839618	5.526462039684
1	1198	587.231493486896	6.008270477471
1	1200	587.236473550079	4.249600498727
1	1202	587.695071136935	1.532778017737
1	1204	588.575032993858	1.593730134948
1	1208	589.988510474979	0.430240402892
1	1214	596.722473210723	0.604951019456
1	1216	597.068535383637	0.606099996064
1	1222	598.552538583765	1.065822440955
1	1224	599.229174131918	1.315765902242
1	1228	606.95893327682	1.697165383064
1	1234	609.024755959008	0.451837520774
1	1236	609.30307200009	0.460730513597
1	1240	613.697164472784	0.758122986434
1	1246	615.530484048839	1.460337087086
1	1250	618.270518915072	4.083327766413
1	1252	618.574974381103	2.380131556459
1	1256	619.524276796208	0.070972878465
1	1260	621.748898396003	0.483851749178
1	1268	623.118524068572	1.362236953764
1	1270	623.964522213335	1.399182587189
1	1274	625.416979684438	2.760477134109
1	1276	626.139394648118	1.633537058232
1	1280	627.219639756603	0.405412924672
1	1284	628.55803478239	0.972124054848
1	1292	632.742699628357	1.387400017101
1	1294	632.822560605235	1.176004862858
1	1296	632.844333646202	0.50507498667
1	1302	634.734761114343	0.399246835833
1	1304	635.341796063092	0.84424197834
1	1308	636.102769988501	0.415201523361
1	1312	636.975433482776	0.166761622762
1	1316	640.777461071692	1.12586667089
1	1320	641.211748603899	0.015931621145
1	1324	642.872794818317	0.658823019114
1	1328	644.729930952717	0.031402489154
1	1332	645.477942010795	0.36538768218
1	1336	649.53147132329	3.264693027311
1	1340	652.322784360435	2.721767191787
1	1344	653.726990943894	0.545888435407
1	1348	654.349957665574	0.129651007366
1	1356	659.482952672903	2.976345564142
1	1358	659.547387690468	3.033767090663
1	1360	660.005904897082	2.634922813224
1	1364	663.276881005985	0.054603557631
1	1368	664.813847098429	0.132434839388
1	1372	672.058821358154	2.276682765276
1	1376	673.332232719222	0.08621235728
1	1382	674.963318573221	0.553764660598
1	1384	675.29141068503	0.788399987634
1	1388	679.953675113142	0.255390541926
1	1392	680.094696042263	0.095588389397
1	1396	681.500659991334	0.001041806999
1	1400	690.529155736275	0.183516572534
1	1404	693.551772294397	0.929170558084
1	1410	695.2091024031	0.399542332534
1	1416	696.423773282406	1.255431875528
1	1418	696.550584384	0.858565285968
1	1422	697.813811343448	1.665611258639
1	1424	698.026993952066	0.665648684751
1	1428	699.757438602252	0.257195133924
1	1434	702.753408988326	2.884466409353
1	1436	705.178467129699	4.762297582421
1	1442	708.644185141565	0.849859206518
1	1448	712.503663430501	3.946438044192
1	1452	715.06085766242	5.731068870426
1	1454	715.487606509601	4.949445325259
1	1456	716.236619239156	1.678920571575
1	1460	718.860783248664	0.123915479043
1	1464	725.033854643557	0.988847081388
1	1474	731.91833342892	3.314408188437
1	1478	732.669485733942	3.020660606408
1	1480	732.778754755949	2.456292588465
1	1484	733.799619480829	2.316548396498
1	1492	736.528413995451	4.135687048213
1	1494	736.716867913897	3.570898813352
1	1498	742.080511648155	8.130700635209
1	1500	744.323944383708	10.068305296699
1	1502	744.815698955127	9.399632459513
1	1506	746.009981467912	5.873955739543
1	1508	746.78931025119	1.614766956983
1	1512	748.379916494629	0.465085866821
1	1516	749.953454033827	0.347130158272
1	1520	753.121627192097	1.404482942077
1	1524	756.730212153021	0.035280870459
1	1534	759.982045731958	2.12615633925
1	1536	760.338245834827	2.450897597115
1	1538	761.090081831033	2.74797111716
1	1540	762.562184529532	3.265321628898
1	1544	764.482712244967	0.619131865092
1	1552	767.658033808859	2.501908656335
1	1554	767.890673416827	2.183267450724
1	1562	770.05655885645	3.216273282286
1	1566	773.360865618518	5.016011064381
1	1568	773.658483343151	5.266372257397
1	1570	774.731412675104	4.881768665487
1	1572	775.049335968617	3.615474969758
1	1576	783.528740968662	4.967078065029
1	1580	786.126928999524	1.842570530105
1	1584	791.887236997678	0.17373932625
1	1588	798.816778903601	1.336627558567
1	1592	799.621900457746	0.541826402041
1	1596	799.822392363397	0.129573561744
1	1604	801.566701840225	1.337375282897
1	1606	802.451005096412	1.285741876498
1	1608	804.312090354111	2.917765398345
1	1612	812.293595939512	1.384745922693
1	1616	812.821217290284	0.521757724281
1	1620	813.215113875999	0.071772689194
1	1624	820.775661034605	0.207716560071
1	1632	822.413480597642	1.493549232893
1	1640	828.945840307145	7.177165714921
1	1642	829.317549701783	7.502693415714
1	1644	831.822800838586	8.342055965875
1	1646	832.224039456438	4.381031960373
1	1648	833.396318016922	5.059157733919
1	1652	835.754298610435	0.22703835834
1	1658	837.456513599542	1.418937477065
1	1662	838.060997004949	0.678868008142
1	1666	839.552369079674	2.047585738803
1	1668	840.193156051404	1.125412266375
1	1674	841.127424348445	0.75758816246
1	1676	842.089916472926	1.700241731477
1	1680	843.725346490906	0.306568454674
1	1684	847.476629707733	2.160368409818
1	1688	855.057333829167	2.403255037676
1	1692	856.818608077596	0.852917060297
1	1700	859.646027950259	0.825620969789
1	1702	860.049157843343	0.595867376944
1	1706	861.399164459219	1.833027564786
1	1708	861.845562244907	0.449104897372
1	1714	864.931168712758	0.151886134056
1	1716	865.042115500684	0.135287145648
1	1720	867.004874082569	1.131357449261
1	1724	869.333439391352	0.574514743023
1	1728	875.14264168121	0.982568018149
1	1734	879.31107215914	1.55057294966
1	1738	880.37579857563	2.199125675528
1	1740	880.63109813933	0.255850202299
1	1744	883.179456379953	2.028642804716
1	1748	890.569603297918	2.319121005378
1	1752	897.678454805124	0.227256286954
1	1756	898.591152725698	0.26898347027
1	1760	902.044437975183	0.270911776985
1	1766	906.098927453948	0.662612005995
1	1772	909.55529274048	3.649368227886
1	1774	909.765037306191	2.234462395211
1	1778	910.108602103258	1.975613072513
1	1784	911.778445531513	1.761269057481
1	1788	914.152674994247	3.747076834341
1	1790	914.261967726589	3.829723460102
1	1794	914.716855027924	1.242841316545
1	1798	915.63343677199	1.140307364084
1	1802	917.313547188095	1.949649297014
1	1804	918.436856832585	2.45339544824
1	1808	925.23473484096	0.094581818947
1	1812	926.003238212122	0.057351688333