version 3
run General-19-20221028-09:56:52-16128
attr configname General
attr datetime 20221028-09:56:52
attr datetimef 20221028-095652
attr experiment General
attr inifile simu_1.ini
attr iterationvars ""
attr iterationvarsd ""
attr iterationvarsf ""
attr measurement ""
attr network Rete
attr processid 16128
attr repetition 19
attr replication #19
attr resultdir results
attr runnumber 19
attr seedset 19
config network Rete
config record-eventlog false
config repeat 30
config sim-time-limit 1000s
config simtime-resolution ps
config **.Servente.serviceTime exponential(1s)
config **.Arrivi.interArrivalTime exponential(2s)

vector 0 Rete.Servente queueLength:vector ETV
attr interpolationmode sample-hold
attr recordingmode vector
attr title "queue length"
vector 1 Rete.Pozzo lifeTime:vector ETV
attr interpolationmode none
attr recordingmode vector
attr title "lifetime of arrived jobs"
attr unit s
0	0	0	0
0	4	1.331129064589	1
0	5	1.637584771022	0
0	24	7.838747294459	1
0	26	8.088820871304	2
0	27	8.871330322749	1
0	29	8.879511956515	0
0	32	11.374746131205	1
0	33	12.938986353271	0
0	52	26.555850818253	1
0	53	26.716198995487	0
0	60	29.691266199168	1
0	61	29.772596946695	0
0	76	37.216672037141	1
0	77	37.981866470308	0
0	84	40.755597636886	1
0	85	41.619340944765	0
0	88	42.394671709937	1
0	89	43.121530735183	0
0	100	47.026341649215	1
0	101	47.746769500236	0
0	108	55.175965549172	1
0	109	55.754436946419	0
0	132	70.975785583516	1
0	133	71.609575530077	0
0	152	78.845192434671	1
0	154	79.302046011783	2
0	155	79.777486257389	1
0	157	80.001009193153	0
0	172	83.663677787827	1
0	174	84.067677267076	2
0	176	85.897480142896	3
0	177	88.620275297998	2
0	179	88.818407750057	1
0	181	90.167477968442	0
0	188	91.828398958426	1
0	189	93.262452561457	0
0	196	96.747006782709	1
0	198	97.683621369685	2
0	200	97.975199001734	3
0	202	97.998741913269	4
0	203	99.411817375043	3
0	205	99.46938559106	2
0	208	100.514012978523	3
0	209	102.007038106721	2
0	212	103.726869218215	3
0	213	104.746028396697	2
0	216	105.806080252292	3
0	218	106.126520877648	4
0	219	107.499644835049	3
0	222	108.360729549331	4
0	223	108.934216715239	3
0	225	109.082548997232	2
0	227	109.825364952022	1
0	229	112.169892432978	0
0	240	116.52909519654	1
0	241	116.555929169889	0
0	248	119.843246765351	1
0	250	120.209089499739	2
0	251	121.088810873814	1
0	253	121.78471680433	0
0	260	128.205624029491	1
0	261	128.85203844448	0
0	264	129.269527969949	1
0	265	129.744875873637	0
0	280	135.712247323996	1
0	281	136.353106104641	0
0	288	138.417371021179	1
0	289	138.553187928142	0
0	292	138.65520997542	1
0	293	138.754132633451	0
0	304	150.294285985883	1
0	306	150.947223398655	2
0	308	151.305382369121	3
0	309	151.451946266798	2
0	311	154.436424504745	1
0	314	155.458041250648	2
0	315	155.797361286215	1
0	318	156.480249243155	2
0	319	157.065459809724	1
0	321	157.473801426791	0
0	324	158.595263142053	1
0	325	158.714205428046	0
0	348	173.070910947229	1
0	349	173.149387332962	0
0	352	173.828983099128	1
0	353	174.499875154829	0
0	360	176.30233776382	1
0	361	177.111569989746	0
0	364	179.052610273343	1
0	366	179.836781204406	2
0	367	180.77014735967	1
0	370	180.933727023732	2
0	372	181.064446887244	3
0	374	181.505205242508	4
0	375	181.637191429251	3
0	378	181.668899102557	4
0	380	182.129905795972	5
0	381	183.573757911454	4
0	383	183.912763361903	3
0	386	185.180869235525	4
0	388	186.141687147223	5
0	389	186.222614399878	4
0	392	186.960578528064	5
0	393	188.025560253365	4
0	395	188.111200683274	3
0	397	188.201371895993	2
0	399	189.920819299829	1
0	401	190.874542190455	0
0	404	192.132455621778	1
0	406	192.329902110206	2
0	407	192.570940257518	1
0	410	193.140119536036	2
0	412	195.391871276311	3
0	414	195.749413398223	4
0	415	197.311329401227	3
0	417	197.492694863029	2
0	419	200.691750847698	1
0	421	201.843403914547	0
0	448	214.199695930461	1
0	450	214.60843152893	2
0	451	216.890636374258	1
0	453	217.119609163718	0
0	456	217.39411296716	1
0	458	218.138374094727	2
0	460	218.444747698973	3
0	461	218.909730230662	2
0	463	218.924822749315	1
0	466	219.702993453176	2
0	467	221.025460807868	1
0	469	223.181817775992	0
0	472	223.596657166405	1
0	473	224.426423148064	0
0	488	232.21500145655	1
0	489	232.70163158604	0
0	500	237.950186754943	1
0	502	238.133447842926	2
0	503	238.933462726103	1
0	506	239.887574661828	2
0	507	240.03036121662	1
0	509	240.142858052095	0
0	516	241.292968218859	1
0	518	242.118436747142	2
0	520	242.841250936964	3
0	521	242.919724620121	2
0	523	243.322337745008	1
0	526	243.790909521919	2
0	528	243.907622226474	3
0	529	245.946395708189	2
0	531	245.976199968799	1
0	533	246.944902318436	0
0	576	281.653186989882	1
0	578	281.880843893863	2
0	579	282.45875141656	1
0	582	282.628481619686	2
0	584	283.209596569539	3
0	585	283.51365310815	2
0	587	284.259074931241	1
0	589	284.731282368788	0
0	592	284.892947320739	1
0	593	285.546466517031	0
0	600	289.073672782414	1
0	602	289.515179087414	2
0	604	289.671896130805	3
0	605	289.758625359	2
0	607	290.578965129017	1
0	610	290.829258191544	2
0	611	290.925093136068	1
0	613	291.022401879026	0
0	620	291.917612608375	1
0	621	292.288015983315	0
0	648	309.72493356455	1
0	650	309.971262065919	2
0	651	310.225630962887	1
0	653	310.415174841991	0
0	660	313.041836100557	1
0	661	313.420255961862	0
0	676	317.689606375925	1
0	677	319.330763124871	0
0	680	319.766130726224	1
0	681	320.750855190187	0
0	708	342.137146442547	1
0	709	343.366534720921	0
0	720	350.080585415367	1
0	721	350.1578247481	0
0	728	351.603205846939	1
0	729	352.536514348233	0
0	732	353.480310062379	1
0	734	353.924629224933	2
0	735	354.534687280118	1
0	737	354.642352814064	0
0	748	357.194383663806	1
0	749	357.275025507149	0
0	776	373.744339772024	1
0	777	373.871042342547	0
0	788	376.106476244245	1
0	790	376.369265580864	2
0	792	376.808975741424	3
0	793	377.069685840663	2
0	795	377.657786481106	1
0	797	378.50454932457	0
0	828	392.843184203833	1
0	830	394.322406915138	2
0	832	394.656917898122	3
0	834	394.94272698436	4
0	835	396.468513664018	3
0	837	397.054907199521	2
0	839	398.145804380268	1
0	841	398.41586622292	0
0	864	406.339015934483	1
0	865	406.558366668887	0
0	872	408.617115599266	1
0	873	410.180264977333	0
0	876	411.722063696066	1
0	877	413.250078378529	0
0	904	423.806843203189	1
0	905	423.940195382597	0
0	920	431.436860969021	1
0	921	431.495189062953	0
0	940	442.734604254783	1
0	941	442.804555218928	0
0	948	446.070088203396	1
0	949	446.131851967925	0
0	960	452.357764653291	1
0	961	452.540968240265	0
0	968	454.965495453935	1
0	969	457.660702040377	0
0	972	458.098150573776	1
0	973	458.209845804296	0
0	976	458.543265225288	1
0	977	459.842209985901	0
0	980	460.382119602693	1
0	981	461.43958117286	0
0	996	468.90569304735	1
0	998	469.233320858734	2
0	999	469.311952705933	1
0	1001	470.615565229751	0
0	1012	478.153994252439	1
0	1014	478.918623743987	2
0	1015	478.963298195778	1
0	1017	479.542158420567	0
0	1020	480.827231524196	1
0	1021	481.361573617639	0
0	1024	481.475605639657	1
0	1026	481.734684331235	2
0	1027	482.49911790752	1
0	1029	482.665996350562	0
0	1052	499.612734295922	1
0	1054	500.222607577328	2
0	1055	501.078682183908	1
0	1057	501.407561496853	0
0	1076	507.873125187157	1
0	1078	509.08743369201	2
0	1079	509.361467041352	1
0	1081	510.180749359437	0
0	1084	510.848433130105	1
0	1085	511.476547634295	0
0	1104	519.87075548425	1
0	1106	519.949657564903	2
0	1107	520.681995516226	1
0	1109	522.632981923889	0
0	1140	546.964337015972	1
0	1142	548.310533319058	2
0	1144	548.551607441968	3
0	1145	549.169160587334	2
0	1147	549.872598998422	1
0	1150	549.89120813067	2
0	1152	551.736241586311	3
0	1153	551.816910433244	2
0	1155	552.272776917577	1
0	1158	552.565355790847	2
0	1159	552.62328255223	1
0	1161	552.630608696635	0
0	1172	564.57988487127	1
0	1173	565.114321883273	0
0	1180	566.617163930829	1
0	1182	566.743771277591	2
0	1183	567.232718922326	1
0	1185	567.236815567018	0
0	1232	592.156441471174	1
0	1233	593.072547698276	0
0	1248	601.847648107537	1
0	1249	601.905642522927	0
0	1252	602.007530967338	1
0	1254	602.783112641888	2
0	1255	603.236109162232	1
0	1258	603.854226195447	2
0	1259	603.912542681219	1
0	1261	603.997339336485	0
0	1264	604.087195745061	1
0	1265	604.223885269652	0
0	1284	609.930543917246	1
0	1285	611.691000686573	0
0	1288	612.584173186153	1
0	1289	613.134847346984	0
0	1308	629.135627593801	1
0	1309	629.498567861209	0
0	1320	637.797470262827	1
0	1321	639.33342885359	0
0	1324	640.032146842092	1
0	1325	640.267759655466	0
0	1340	647.492013462644	1
0	1342	648.205637206179	2
0	1344	649.440464291928	3
0	1345	649.716416299264	2
0	1348	650.268756553228	3
0	1349	650.385979010348	2
0	1351	651.09299755368	1
0	1353	651.23678545446	0
0	1380	662.368365638899	1
0	1381	667.836516297344	0
0	1392	678.550920953138	1
0	1394	680.44766725439	2
0	1395	681.384355147351	1
0	1397	683.154711101166	0
0	1420	695.34257399758	1
0	1421	696.619298146752	0
0	1424	697.514289711994	1
0	1425	697.748885920914	0
0	1428	697.931771805722	1
0	1429	697.995387966586	0
0	1436	699.385416397064	1
0	1437	699.663903297192	0
0	1448	703.028450631346	1
0	1449	703.246460836983	0
0	1468	713.340704332504	1
0	1469	714.229016092042	0
0	1472	715.254316508419	1
0	1473	717.09443873322	0
0	1488	721.09917837705	1
0	1489	722.06623572579	0
0	1492	722.619139048233	1
0	1493	722.820528621138	0
0	1504	732.575356185822	1
0	1505	734.082797296197	0
0	1536	750.870002000833	1
0	1537	751.647484240641	0
0	1552	770.525403871469	1
0	1553	770.546089774207	0
0	1564	779.426346632766	1
0	1565	780.371492066916	0
0	1568	780.873213474099	1
0	1569	782.517979159507	0
0	1580	788.942727067563	1
0	1582	790.688309898946	2
0	1583	791.030715042452	1
0	1586	791.699302911775	2
0	1587	792.116888124306	1
0	1589	793.409933532242	0
0	1596	794.714178304342	1
0	1597	794.718136449234	0
0	1604	795.467536817026	1
0	1605	796.454756496159	0
0	1620	808.73520924486	1
0	1622	808.960979662974	2
0	1624	809.860117351853	3
0	1626	810.186531684807	4
0	1627	810.867534906308	3
0	1629	811.095355645186	2
0	1631	812.870571109033	1
0	1634	813.575703671225	2
0	1635	814.962336006072	1
0	1638	815.306726608195	2
0	1639	815.950806495749	1
0	1642	816.88587782548	2
0	1644	817.100582297489	3
0	1645	817.191864973126	2
0	1648	817.448702666034	3
0	1649	817.795961636104	2
0	1652	818.667806992582	3
0	1653	819.502608198221	2
0	1655	820.115365644312	1
0	1657	820.411271490517	0
0	1660	821.242596138348	1
0	1661	821.917298741204	0
0	1672	829.94152003635	1
0	1674	831.46585041001	2
0	1675	832.429257610086	1
0	1678	833.474094514205	2
0	1680	833.554694863953	3
0	1681	833.97936593477	2
0	1683	834.374631659772	1
0	1685	834.930652229191	0
0	1688	835.189211864135	1
0	1689	835.561593048869	0
0	1736	871.911386285394	1
0	1738	873.175111163719	2
0	1739	873.816320026953	1
0	1741	874.320101456507	0
0	1744	875.027885673004	1
0	1745	875.255103043164	0
0	1752	876.627361062173	1
0	1753	877.43698430473	0
0	1756	877.694311772964	1
0	1757	878.832561864364	0
0	1824	925.294869846269	1
0	1825	925.717563224975	0
0	1836	933.35409186232	1
0	1838	934.287108073227	2
0	1840	935.674164651032	3
0	1842	936.279983650524	4
0	1843	936.48568863276	3
0	1846	936.867469230787	4
0	1847	936.954752052694	3
0	1850	937.530673845629	4
0	1851	939.756733901648	3
0	1853	939.927421140441	2
0	1856	940.200256973278	3
0	1858	940.830488932062	4
0	1860	943.356492980519	5
0	1861	944.18904765873	4
0	1864	944.201711345944	5
0	1865	945.140119608049	4
0	1867	945.968084566573	3
0	1869	946.042420847317	2
0	1872	946.116273282674	3
0	1874	947.681858056366	4
0	1875	947.751207110244	3
0	1877	947.909464585198	2
0	1879	949.367346284972	1
0	1882	949.573884129616	2
0	1883	949.601595956988	1
0	1886	949.661467505388	2
0	1887	949.812385694894	1
0	1889	950.462482116963	0
0	1912	961.322155980307	1
0	1913	962.477313627241	0
0	1936	971.712468918332	1
0	1938	971.728919129194	2
0	1940	972.468247879094	3
0	1941	973.183937681838	2
0	1944	973.388415290213	3
0	1945	974.075243652905	2
0	1947	974.828353582888	1
0	1949	975.194307381236	0
0	1960	980.564940637796	1
0	1961	983.395924080058	0
0	1976	991.32117430249	1
0	1978	991.93049069858	2
0	1979	992.119836619345	1
0	1981	992.888821048729	0
0	1984	993.224715504657	1
0	1985	993.57253750692	0
0	1988	994.488592295187	1
0	1990	994.833642936305	2
0	1991	995.575546620907	1
0	1993	996.568458849426	0
0	1996	998.18516211707	1
1	6	1.637584771022	1.432337120519
1	8	1.92119244804	0.590063383451
1	12	2.544367109172	0.148652792857
1	16	5.31105777586	0.40263895363
1	20	5.591548515517	0.086647338127
1	28	8.871330322749	1.114671797644
1	30	8.879511956515	1.040764662056
1	34	12.938986353271	4.850165481967
1	36	13.948656146774	2.573910015569
1	40	19.492119331013	0.243248372114
1	44	21.894087848058	0.796348765623
1	48	25.667575470667	0.788689297617
1	54	26.716198995487	0.266672422745
1	56	26.836927938294	0.281077120041
1	62	29.772596946695	0.69246594018
1	64	29.937599454758	0.24633325559
1	68	32.271921849305	0.76075404375
1	72	36.037136386496	0.489401390388
1	78	37.981866470308	1.165801954091
1	80	38.448559032763	1.231886995622
1	86	41.619340944765	2.921739372991
1	90	43.121530735183	2.365933098297
1	92	44.058111675027	1.66343996509
1	96	45.238612921498	0.955114832984
1	102	47.746769500236	1.029984758216
1	104	48.05940501503	1.033063365815
1	110	55.754436946419	1.386919135628
1	112	56.09247308966	0.916507540488
1	116	61.244440418447	1.235725126513
1	120	61.964567343754	0.06698072636
1	124	66.087803847814	1.170726566942
1	128	69.02371193819	0.803336749377
1	134	71.609575530077	0.807047332192
1	136	72.035032093272	1.059246509756
1	140	75.644868336676	0.18948269196
1	144	77.183974994799	0.780739025126
1	148	77.245015350826	0.053157182681
1	156	79.777486257389	1.74616078328
1	158	80.001009193153	1.155816758482
1	160	80.046181493757	0.744135481974
1	164	81.864790768329	0.07962406962
1	168	82.446730345741	0.01039777036
1	178	88.620275297998	5.168135355741
1	180	88.818407750057	5.15472996223
1	182	90.167477968442	6.099800701366
1	184	90.620629835794	4.723149692898
1	190	93.262452561457	1.993900541412
1	192	93.860754212915	2.032355254489
1	204	99.411817375043	3.553292220114
1	206	99.46938559106	2.722378808351
1	210	102.007038106721	4.323416737036
1	214	104.746028396697	6.770829394963
1	220	107.499644835049	9.50090292178
1	224	108.934216715239	8.420203736716
1	226	109.082548997232	5.355679779017
1	228	109.825364952022	4.01928469973
1	230	112.169892432978	6.04337155533
1	232	112.765770912435	4.405041363104
1	236	113.986028098618	0.031777176762
1	242	116.555929169889	1.959736718239
1	244	116.757468774489	0.228373577949
1	252	121.088810873814	1.303091543205
1	254	121.78471680433	1.941470038979
1	256	124.070599598299	3.86151009856
1	262	128.85203844448	1.798007983826
1	266	129.744875873637	1.539251844146
1	268	130.193445654596	0.923917684647
1	272	132.912384933466	0.180120814093
1	276	133.547355626691	0.580196709826
1	282	136.353106104641	1.427893812554
1	284	136.936993286592	1.224745962596
1	290	138.553187928142	0.139863851312
1	294	138.754132633451	0.336761612272
1	296	144.720838577628	6.065628602208
1	300	147.914314848309	0.313139239629
1	310	151.451946266798	2.097729525472
1	312	154.436424504745	4.142138518862
1	316	155.797361286215	4.85013788756
1	320	157.065459809724	5.760077440603
1	322	157.473801426791	2.015760176143
1	326	158.714205428046	2.233956184891
1	328	159.226611184151	0.631348042098
1	332	163.235361543514	2.428446979083
1	336	167.19506223363	0.055425926693
1	340	170.246250852176	0.68360121004
1	344	170.643082291147	0.287200382719
1	350	173.149387332962	0.428433155755
1	354	174.499875154829	1.4289642076
1	356	174.947971726534	1.118988627406
1	362	177.111569989746	0.996259957588
1	368	180.77014735967	4.46780959585
1	376	181.637191429251	2.584581155908
1	382	183.573757911454	3.736976707048
1	384	183.912763361903	2.979036338171
1	390	186.222614399878	5.158167512634
1	394	188.025560253365	6.520355010857
1	396	188.111200683274	6.442301580717
1	398	188.201371895993	6.071466100021
1	400	189.920819299829	4.739950064304
1	402	190.874542190455	4.732855043232
1	408	192.570940257518	5.610361729454
1	416	197.311329401227	5.178873779449
1	418	197.492694863029	5.162792752823
1	420	200.691750847698	7.551631311662
1	422	201.843403914547	6.451532638236
1	424	202.951896554466	7.202483156243
1	428	206.185002768586	2.234568055468
1	432	208.332276399279	0.427032619216
1	436	210.30654405827	0.998763918072
1	440	211.584914763182	0.208862504049
1	444	212.106750571339	0.428147256935
1	452	216.890636374258	4.184952764047
1	454	217.119609163718	2.919913233257
1	462	218.909730230662	4.301298701732
1	464	218.924822749315	1.530709782155
1	468	221.025460807868	2.887086713141
1	470	223.181817775992	4.737070077019
1	474	224.426423148064	4.723429694888
1	476	226.368123473559	2.771466307154
1	480	228.447707152397	1.97763854186
1	484	231.453159191381	1.58867554243
1	490	232.70163158604	0.648372902178
1	492	232.79944320721	0.58444175066
1	496	234.704636071698	0.376426906202
1	504	238.933462726103	1.025052848788
1	508	240.03036121662	2.080174461677
1	510	240.142858052095	2.009410209169
1	512	240.201073554174	0.313498892346
1	522	242.919724620121	2.410750773145
1	524	243.322337745008	2.029369526149
1	530	245.946395708189	3.827958961047
1	532	245.976199968799	3.134949031835
1	534	246.944902318436	3.153992796517
1	536	247.079726969905	3.172104743431
1	540	248.175299000525	0.104917445378
1	544	258.980465853184	0.176952879913
1	548	259.522978363816	0.163556396173
1	552	261.655340721091	0.374534040043
1	556	265.520962736621	0.820527507668
1	560	269.60948525227	0.427778066298
1	564	274.094459071342	0.429883909657
1	568	279.153182747163	0.951155385753
1	572	281.500489857865	0.072817650308
1	580	282.45875141656	0.910235545085
1	586	283.51365310815	1.860466118268
1	588	284.259074931241	2.378231037378
1	590	284.731282368788	2.102800749102
1	594	285.546466517031	2.336869947492
1	596	286.449980478542	1.557033157803
1	606	289.758625359	0.930229021645
1	608	290.578965129017	1.505292346603
1	612	290.925093136068	1.409914048654
1	614	291.022401879026	1.350505748221
1	616	291.254811257296	0.425553065752
1	622	292.288015983315	0.477860329074
1	624	292.490886933727	0.573274325352
1	628	293.435835927216	0.666237308322
1	632	300.132126219164	0.062435740367
1	636	305.044188719475	0.043345100973
1	640	307.016926486332	1.09992367362
1	644	308.679994886862	0.072655919061
1	652	310.225630962887	0.900700223199
1	654	310.415174841991	0.690241277441
1	656	312.292467680057	2.321205614138
1	662	313.420255961862	0.717652352446
1	664	313.553668175449	0.511832074892
1	668	314.516274340622	0.266195472635
1	672	316.088772710048	0.318479083787
1	678	319.330763124871	1.790124733609
1	682	320.750855190187	3.061248814262
1	684	321.051466856004	1.28533612978
1	688	326.324892905802	2.050871055946
1	692	332.960351143483	0.279963069337
1	696	337.871368457412	0.05163800324
1	700	338.725605361114	0.735557680459
1	704	340.387111451025	0.649366595658
1	710	343.366534720921	2.285666061384
1	712	343.788399181939	1.651252739392
1	716	346.230425561677	1.877654095437
1	722	350.1578247481	0.085592569754
1	724	350.270242961002	0.189657545635
1	730	352.536514348233	1.533926587357
1	736	354.534687280118	2.931481433179
1	738	354.642352814064	1.162042751685
1	740	354.745866180714	0.821236955781
1	744	356.788915980477	1.956416757612
1	750	357.275025507149	0.11665185173
1	752	357.39899457095	0.204610907144
1	756	363.500107252245	0.553390244745
1	760	363.610102868107	0.027857450548
1	764	365.43829708005	0.131931561627
1	768	368.035048131583	0.017689861943
1	772	369.403775430375	0.530364129499
1	778	373.871042342547	0.639530183433
1	780	373.95734312462	0.213003352596
1	784	375.387716051367	0.243101044697
1	794	377.069685840663	1.417590187846
1	796	377.657786481106	1.551310236861
1	798	378.50454932457	2.135283743706
1	800	378.910140037681	2.101164296257
1	804	380.097036071405	0.255144807953
1	808	383.031561545798	0.378755643364
1	812	383.600959249352	0.160202812739
1	816	388.325317031146	1.026438772629
1	820	390.120883988876	0.747471776605
1	824	391.466070758051	0.213951348797
1	836	396.468513664018	3.928576463113
1	838	397.054907199521	4.211722995688
1	840	398.145804380268	3.82339746513
1	842	398.41586622292	3.758948324798
1	844	398.679997196885	3.737270212525
1	848	400.145504135294	1.371603833818
1	852	400.518974301908	0.058833366244
1	856	404.085908776239	0.673852363443
1	860	404.918447072488	0.662013116372
1	866	406.558366668887	0.904893738457
1	868	406.655351827667	0.316335893184
1	874	410.180264977333	2.800025972138
1	878	413.250078378529	4.632962779263
1	880	413.991948021379	2.269884325313
1	884	415.939487164049	1.077747616368
1	888	417.116958583014	0.65267631859
1	892	418.028870308244	0.691539148727
1	896	419.09766284252	0.421135719871
1	900	422.041935789587	1.5237767044
1	906	423.940195382597	0.149761914934
1	908	427.09941572416	3.292572520971
1	912	429.47581471227	1.839338360733
1	916	430.178254243151	0.095698595484
1	922	431.495189062953	0.561752750245
1	924	431.603836366497	0.166975397476
1	928	432.055721013042	0.425125984554
1	932	435.728247904085	1.185751309023
1	936	440.877105562936	0.539920413702
1	942	442.804555218928	0.165847279261
1	944	444.164396725683	1.4297924709
1	950	446.131851967925	0.612028304142
1	952	446.268660497694	0.198572294298
1	956	447.430478672999	0.508001284616
1	962	452.540968240265	0.227989894715
1	964	453.44987439064	1.092109737349
1	970	457.660702040377	2.826341499806
1	974	458.209845804296	3.244350350361
1	978	459.842209985901	1.744059412125
1	982	461.43958117286	2.896315947572
1	984	461.777199265923	1.39507966323
1	988	463.659293507942	0.920698148517
1	992	468.127094732973	0.817795252356
1	1000	469.311952705933	0.420348777658
1	1002	470.615565229751	1.709872182401
1	1004	471.070220418137	1.836899559403
1	1008	473.494021914364	2.272046787546
1	1016	478.963298195778	1.318119458616
1	1018	479.542158420567	1.388164168128
1	1022	481.361573617639	2.442949873652
1	1028	482.49911790752	1.671886383324
1	1030	482.665996350562	1.190390710905
1	1032	484.157644478999	2.422960147764
1	1036	485.570190336802	1.288381866363
1	1040	492.101196856709	0.424205506057
1	1044	494.559632817217	0.263223724104
1	1048	495.899200348387	0.224386054942
1	1056	501.078682183908	1.9367720314
1	1058	501.407561496853	1.794827200931
1	1060	502.190285362815	1.967677785487
1	1064	503.080670359162	0.226451276053
1	1068	503.858706993348	0.755811418964
1	1072	504.367616157644	0.363744607126
1	1080	509.361467041352	1.73046305266
1	1082	510.180749359437	2.30762417228
1	1086	511.476547634295	2.389113942285
1	1088	511.679818193301	0.831385063196
1	1092	513.811709312015	0.00609975008
1	1096	514.594911806849	0.271916758441
1	1100	518.032906722861	0.186420825228
1	1108	520.681995516226	1.39616122704
1	1110	522.632981923889	2.762226439639
1	1112	523.124456558237	3.174798993334
1	1116	524.155280511554	0.412633803875
1	1120	524.512725996381	0.010861950576
1	1124	527.74318037017	0.318143259028
1	1128	530.375031869226	1.702076440998
1	1132	532.874686069117	0.166329151261
1	1136	542.73943652805	1.261192223463
1	1146	549.169160587334	5.162116939107
1	1148	549.872598998422	2.90826198245
1	1154	551.816910433244	3.506377114186
1	1156	552.272776917577	3.721169475609
1	1160	552.62328255223	2.73207442156
1	1162	552.630608696635	0.894367110324
1	1164	552.741760606763	0.176404815916
1	1168	562.24621072012	0.207696604929
1	1174	565.114321883273	0.566207675349
1	1176	565.405303843671	0.825418972401
1	1184	567.232718922326	0.653314283336
1	1186	567.236815567018	0.619651636189
1	1188	567.64612245087	0.902351173279
1	1192	573.664460628112	2.568938772408
1	1196	574.455752840433	0.208360519715
1	1200	576.672621904683	1.58151422225
1	1204	577.523695408304	0.128681000427
1	1208	582.026260507352	0.023526220182
1	1212	582.536099561397	0.106671560179
1	1216	585.353167424127	1.805406503877
1	1220	586.76224121168	1.115165525733
1	1224	588.032065951137	1.116733272777
1	1228	591.588754821398	0.126898657038
1	1234	593.072547698276	1.451360172676
1	1236	593.649550826506	1.493109355332
1	1240	595.842110244289	0.335898149292
1	1244	598.664267426387	1.591995397685
1	1250	601.905642522927	0.652766372323
1	1256	603.236109162232	1.388461054695
1	1260	603.912542681219	1.905011713881
1	1262	603.997339336485	1.214226694597
1	1266	604.223885269652	0.369659074205
1	1268	604.229116634098	0.141920889037
1	1272	604.749427870125	0.260742289524
1	1276	608.55416354514	1.526562493928
1	1280	609.258668746079	0.137351154831
1	1286	611.691000686573	2.174988553192
1	1290	613.134847346984	3.204303429738
1	1292	613.818707937908	1.234534751755
1	1296	620.796374289887	1.927432909525
1	1300	621.970011299263	0.17361042224
1	1304	628.114731404548	2.651785204527
1	1310	629.498567861209	0.986336754619
1	1312	631.461833592695	2.326205998894
1	1316	636.168794751302	0.144282244542
1	1322	639.33342885359	1.706268731688
1	1326	640.267759655466	2.470289392639
1	1328	642.041524484808	2.009377642716
1	1332	645.316147308653	1.776195816906
1	1336	647.037870954188	0.492386795306
1	1346	649.716416299264	2.52989186646
1	1350	650.385979010348	2.893965547704
1	1352	651.09299755368	2.887360347501
1	1354	651.23678545446	1.796321162532
1	1356	651.243351794174	0.974595240946
1	1360	653.369923194324	0.386788007253
1	1364	654.689275030966	0.551086072255
1	1368	657.784712986607	0.076685217511
1	1372	659.281496425335	0.258785111936
1	1376	661.609851566788	0.310192045817
1	1382	667.836516297344	5.780561495117
1	1384	667.965641662405	5.597276023506
1	1388	671.386268359409	0.421183847328
1	1396	681.384355147351	4.583330869039
1	1398	683.154711101166	4.603790148028
1	1400	685.47175652563	5.02408927124
1	1404	687.219039889939	0.217657557341
1	1408	687.538136190767	0.094072323934
1	1412	688.212675330749	0.101894218532
1	1416	693.513775954918	0.911823005752
1	1422	696.619298146752	1.407638413411
1	1426	697.748885920914	2.406311923334
1	1430	697.995387966586	0.481098254592
1	1432	698.343465958647	0.411694152925
1	1438	699.663903297192	0.702752220203
1	1440	699.737688084906	0.352271687842
1	1444	701.126431512636	0.77849938388
1	1450	703.246460836983	1.146670573941
1	1452	703.933900900591	0.905450269245
1	1456	704.781338577025	0.544019925405
1	1460	711.757745392746	1.139867112038
1	1464	712.962989929308	0.648016364264
1	1470	714.229016092042	1.001556156254
1	1474	717.09443873322	3.753734400716
1	1476	717.883816473252	2.629499964833
1	1480	719.254728996093	1.28907938658
1	1484	719.810352325313	0.341273058943
1	1490	722.06623572579	1.417452182842
1	1494	722.820528621138	1.721350244088
1	1496	726.279828731663	3.66068968343
1	1500	729.428620907394	0.169473306054
1	1506	734.082797296197	1.840655960442
1	1508	734.261176903155	1.685820717333
1	1512	737.006774403804	0.059442553042
1	1516	737.474461846262	0.242789722307
1	1520	740.100685704018	0.128903708977
1	1524	744.293173061674	0.352700104721
1	1528	746.326559377435	0.008143147858
1	1532	748.435712258267	1.084263512382
1	1538	751.647484240641	1.733564975176
1	1540	751.7916303478	0.921628346967
1	1544	761.381924396905	0.236521199109
1	1548	764.123827643425	1.692529594938
1	1554	770.546089774207	0.353301502144
1	1556	771.229196180666	0.703792309197
1	1560	771.995080294186	0.101968909905
1	1566	780.371492066916	1.278207212372
1	1570	782.517979159507	3.091632526741
1	1572	782.953930825302	2.080717351203
1	1576	786.679866416619	0.234955708906
1	1584	791.030715042452	2.483407297296
1	1588	792.116888124306	3.174161056743
1	1590	793.409933532242	2.721623633296
1	1592	793.50330004405	1.803997132275
1	1598	794.718136449234	1.006096470032
1	1600	794.963088468923	0.248910164581
1	1606	796.454756496159	1.131254422181
1	1608	797.065406381918	1.597869564892
1	1612	804.979894566715	0.575623033934
1	1616	806.470197238453	1.019221640896
1	1628	810.867534906308	2.149338216745
1	1630	811.095355645186	2.360146400326
1	1632	812.870571109033	3.909591446059
1	1636	814.962336006072	5.102218654219
1	1640	815.950806495749	5.764274810942
1	1646	817.191864973126	3.616161301901
1	1650	817.795961636104	2.489235027909
1	1654	819.502608198221	2.616730372741
1	1656	820.115365644312	3.014783346823
1	1658	820.411271490517	2.962568824483
1	1662	821.917298741204	3.249491748622
1	1664	821.922014266016	0.679418127668
1	1668	828.028680241528	0.197633868318
1	1676	832.429257610086	3.147092110532
1	1682	833.97936593477	4.03784589842
1	1684	834.374631659772	2.908781249762
1	1686	834.930652229191	1.456557714986
1	1690	835.561593048869	2.006898184916
1	1692	836.087955342462	0.898743478327
1	1696	837.258762241036	0.823335698683
1	1700	845.212655415051	1.359976814505
1	1704	848.915553109692	0.360336335105
1	1708	850.232992242101	0.501750900511
1	1712	855.748177800934	0.285395920863
1	1716	858.18158039984	1.567607852263
1	1720	865.302778218648	0.772729822939
1	1724	865.828017626284	0.090965799876
1	1728	866.908095389913	0.053011097998
1	1732	869.880886397391	0.462437203258
1	1740	873.816320026953	2.434990470687
1	1742	874.320101456507	2.408715171113
1	1746	875.255103043164	2.079991879445
1	1748	875.692997176443	0.665111503439
1	1754	877.43698430473	1.075426258455
1	1758	878.832561864364	2.205200802191
1	1760	878.917186116473	1.222874343509
1	1764	882.971489287302	1.698753854719
1	1768	888.273959759779	1.443244191305
1	1772	888.473453451372	0.050099012195
1	1776	891.389177982514	0.86899896225
1	1780	891.912102468273	0.214102876397
1	1784	898.560038717041	0.212424890504
1	1788	902.407490767177	0.981596511909
1	1792	906.14911301873	0.010706304125
1	1796	908.038474190599	1.00745770522
1	1800	910.640397116469	0.485816043769
1	1804	913.548829922212	0.269452451185
1	1808	917.01965402541	0.015024009253
1	1812	918.075096370083	0.569692567888
1	1816	918.96288886638	0.303177200719
1	1820	920.373756529745	0.432668890237
1	1826	925.717563224975	2.896817632598
1	1828	925.81119168868	0.516321842411
1	1832	932.295342570413	0.244426702032
1	1844	936.48568863276	3.192770520489
1	1848	936.954752052694	3.600660190374
1	1852	939.756733901648	5.469625828421
1	1854	939.927421140441	4.253256489409
1	1862	944.18904765873	7.909064008206
1	1866	945.140119608049	8.272650377262
1	1868	945.968084566573	8.437410720944
1	1870	946.042420847317	5.842163874039
1	1876	947.751207110244	6.920718178182
1	1878	947.909464585198	4.552971604679