version 3
run General-23-20221103-09:44:57-15908
attr configname General
attr datetime 20221103-09:44:57
attr datetimef 20221103-094457
attr experiment General
attr inifile simu_1.ini
attr iterationvars ""
attr iterationvarsd ""
attr iterationvarsf ""
attr measurement ""
attr network Rete
attr processid 15908
attr repetition 23
attr replication #23
attr resultdir results
attr runnumber 23
attr seedset 23
config network Rete
config record-eventlog true
config repeat 30
config sim-time-limit 1000s
config simtime-resolution ps
config **.Servente.serviceTime exponential(1s)
config **.Arrivi.interArrivalTime exponential(2s)

vector 0 Rete.Servente queueLength:vector ETV
attr interpolationmode sample-hold
attr recordingmode vector
attr title "queue length"
vector 1 Rete.Pozzo lifeTime:vector ETV
attr interpolationmode none
attr recordingmode vector
attr title "lifetime of arrived jobs"
attr unit s
0	0	0	0
0	4	3.668571820289	1
0	6	4.077677896467	2
0	7	4.393469137312	1
0	9	5.915260274792	0
0	28	10.467610468822	1
0	29	10.755597535357	0
0	32	10.963642672303	1
0	33	11.718069241485	0
0	52	30.000434334345	1
0	53	30.357528520643	0
0	60	38.54250384216	1
0	62	40.831130111736	2
0	63	41.292386392058	1
0	65	42.689254925601	0
0	80	48.601649914961	1
0	81	49.02403007779	0
0	84	49.593328046885	1
0	85	50.008019081512	0
0	104	59.058275867935	1
0	105	59.128855651159	0
0	112	64.346434891142	1
0	113	65.251165514267	0
0	120	69.79468547042	1
0	121	70.287279484618	0
0	124	70.514984259376	1
0	125	71.552602438767	0
0	132	73.451982556971	1
0	133	74.33847905659	0
0	172	102.699271284097	1
0	173	102.822153017286	0
0	176	103.018286213869	1
0	177	103.018468762613	0
0	188	109.494961425213	1
0	189	109.999530584221	0
0	192	110.181948442574	1
0	193	110.659349733971	0
0	196	111.523820915205	1
0	198	111.584610202685	2
0	199	113.777020193352	1
0	201	115.88424081632	0
0	204	116.222083589258	1
0	206	116.456595686943	2
0	207	116.588973494501	1
0	209	117.809049093917	0
0	216	119.949155385731	1
0	217	120.15775056775	0
0	248	140.092345964813	1
0	250	141.039831045867	2
0	251	141.403893909995	1
0	254	141.575060722458	2
0	255	143.137074853348	1
0	258	143.48921727392	2
0	259	143.969152369263	1
0	261	144.119950801672	0
0	272	156.366023889109	1
0	273	159.896912691381	0
0	284	163.207875452499	1
0	285	164.282976810247	0
0	288	165.590462288602	1
0	289	166.147366318666	0
0	292	166.159416851619	1
0	293	166.751250985025	0
0	316	183.473549967257	1
0	318	184.816375097298	2
0	319	184.852795640281	1
0	321	185.382024091959	0
0	356	207.57465367465	1
0	357	207.711677217912	0
0	360	207.78530022245	1
0	361	209.129542209905	0
0	364	209.389741964206	1
0	365	209.74455142481	0
0	372	212.798041477217	1
0	373	212.991156484973	0
0	392	223.207342389876	1
0	393	223.733673803805	0
0	412	236.449330401129	1
0	413	236.516120570274	0
0	424	241.369122870127	1
0	425	241.563353155277	0
0	436	243.848934773541	1
0	437	244.395598803998	0
0	444	248.097223434728	1
0	446	248.559170687057	2
0	447	249.586328894481	1
0	449	251.675596873043	0
0	452	252.260337639063	1
0	453	252.406060624778	0
0	456	252.719972971104	1
0	458	253.208803408961	2
0	459	253.331077335586	1
0	461	253.356062232926	0
0	464	253.38754977315	1
0	466	253.444410624825	2
0	467	256.447302288219	1
0	469	257.132428357977	0
0	480	259.115641733973	1
0	481	260.017429007502	0
0	488	262.713462303337	1
0	490	262.805925995373	2
0	491	263.613961276935	1
0	494	263.815714650284	2
0	495	264.065780780736	1
0	497	264.218012966706	0
0	500	264.534251731068	1
0	501	264.725418838125	0
0	504	265.601682399064	1
0	505	266.621103342131	0
0	508	267.969586530212	1
0	510	268.326472308406	2
0	511	268.445832612912	1
0	513	268.80985933626	0
0	516	268.998481953318	1
0	518	269.221714618378	2
0	519	269.223646399269	1
0	522	270.544592948473	2
0	524	271.515205523404	3
0	526	271.831570375003	4
0	528	272.628908938638	5
0	530	272.848776509975	6
0	531	273.746082299445	5
0	533	273.882366333434	4
0	535	273.984271673501	3
0	538	274.354584394427	4
0	540	274.401899556964	5
0	542	274.760786021202	6
0	544	275.18232353159	7
0	546	275.225371860794	8
0	547	275.514707819787	7
0	549	275.889020824538	6
0	551	277.320129101517	5
0	553	277.322044602342	4
0	555	278.058914744137	3
0	557	278.105777059151	2
0	559	278.236281305429	1
0	561	278.461936402222	0
0	564	281.783825723127	1
0	566	283.369590434423	2
0	567	285.02375131727	1
0	569	287.217619356682	0
0	572	287.752789922188	1
0	574	287.909851591007	2
0	576	289.573683866441	3
0	577	290.427654707038	2
0	579	290.781808402065	1
0	581	292.412296972693	0
0	604	303.001984402728	1
0	605	303.30214940852	0
0	612	307.623592743846	1
0	613	308.024838944834	0
0	660	335.203786225202	1
0	661	336.01213067988	0
0	672	340.181445293589	1
0	673	341.143215379973	0
0	692	348.448915382513	1
0	693	348.809231912182	0
0	724	370.650780048823	1
0	725	370.715497539176	0
0	728	373.995370674091	1
0	729	374.004835199197	0
0	732	374.826750383573	1
0	734	374.895411946934	2
0	736	375.26997880027	3
0	737	375.447352866315	2
0	739	375.574250653169	1
0	742	377.056785142009	2
0	744	377.858545380944	3
0	745	378.906904409453	2
0	748	379.139547026023	3
0	749	380.50947564786	2
0	751	381.438565464578	1
0	753	381.666571386972	0
0	776	396.277446606553	1
0	778	397.46178832109	2
0	780	398.772284257322	3
0	781	399.282684305726	2
0	784	399.74609686316	3
0	785	403.970246557142	2
0	787	404.649980693648	1
0	789	404.871860875633	0
0	804	411.062475744271	1
0	805	412.322649351557	0
0	812	415.702447970944	1
0	814	415.925594060306	2
0	815	416.264272842904	1
0	817	416.571558266444	0
0	828	422.30906870437	1
0	829	422.710769875069	0
0	868	447.766420967023	1
0	870	448.077501013096	2
0	871	448.399838565688	1
0	874	448.919609889062	2
0	875	449.065449357506	1
0	878	450.185250956827	2
0	880	451.767824254068	3
0	882	452.218219793348	4
0	883	453.297436345166	3
0	885	454.377209085601	2
0	887	454.805060774761	1
0	889	454.820396642688	0
0	892	455.820321426767	1
0	894	455.902894222217	2
0	895	456.349112388157	1
0	897	456.828809238228	0
0	900	458.008326407363	1
0	901	458.892580227723	0
0	920	470.180709028239	1
0	922	471.220061488625	2
0	923	471.748082758203	1
0	926	471.921226140795	2
0	928	472.9202033985	3
0	929	473.088077638393	2
0	932	473.402429428238	3
0	934	473.886099819336	4
0	935	474.796225401104	3
0	938	474.887888670726	4
0	939	475.82588920657	3
0	941	476.629522558489	2
0	943	476.660111423631	1
0	945	476.981265027718	0
0	952	479.506125877227	1
0	953	479.661545941934	0
0	956	480.985789846239	1
0	957	483.609810031011	0
0	968	491.492824974091	1
0	969	491.903786447868	0
0	980	499.48800737478	1
0	981	501.462637938794	0
0	984	501.882553865247	1
0	985	502.023954136406	0
0	1000	509.364323378691	1
0	1001	510.135845918951	0
0	1016	515.242825213312	1
0	1017	515.942212316057	0
0	1028	529.546125224913	1
0	1029	529.739827320952	0
0	1056	558.510491743256	1
0	1058	558.734527962395	2
0	1059	558.872413580514	1
0	1061	559.10625126182	0
0	1076	566.007109506705	1
0	1077	566.389650304152	0
0	1088	579.779698277165	1
0	1089	579.940338089127	0
0	1092	580.246106841405	1
0	1093	580.606023049722	0
0	1116	596.057219118137	1
0	1117	596.457098630989	0
0	1152	614.539949467107	1
0	1153	615.735735341098	0
0	1168	627.062142055965	1
0	1170	627.607047181129	2
0	1171	628.781765631297	1
0	1174	629.194459581176	2
0	1175	629.873265285435	1
0	1178	630.629277916859	2
0	1179	632.764702780022	1
0	1181	633.619682697985	0
0	1184	633.961441118467	1
0	1186	634.561010497887	2
0	1187	634.878983752896	1
0	1189	635.384926837819	0
0	1200	639.751993697739	1
0	1202	641.074026757033	2
0	1203	641.504258123906	1
0	1206	641.912330309793	2
0	1208	642.225310079514	3
0	1210	642.606080658083	4
0	1212	643.011900867147	5
0	1213	643.074411675771	4
0	1215	643.252948878642	3
0	1218	643.292585892704	4
0	1219	643.392912971334	3
0	1221	643.907415824204	2
0	1224	644.400860809517	3
0	1225	644.83777634018	2
0	1227	644.936625856109	1
0	1229	644.97193671728	0
0	1248	655.744489661699	1
0	1249	657.068983952745	0
0	1276	685.125181292446	1
0	1277	685.313284216285	0
0	1284	687.357959670272	1
0	1285	687.637393528502	0
0	1288	688.51260127461	1
0	1289	688.596492920688	0
0	1292	690.093444563111	1
0	1294	691.195010091105	2
0	1296	693.307168067821	3
0	1298	693.763079910062	4
0	1299	694.176927348523	3
0	1301	695.270673638688	2
0	1304	695.781600286466	3
0	1305	696.035344065905	2
0	1307	696.474746128287	1
0	1309	697.362351072853	0
0	1336	709.893849730408	1
0	1337	709.993200009413	0
0	1360	725.069329455617	1
0	1362	725.703052221424	2
0	1364	727.695286649978	3
0	1366	729.210485243132	4
0	1367	729.91397863739	3
0	1369	730.324246855046	2
0	1371	730.340832630551	1
0	1373	730.382124680212	0
0	1392	746.788808054801	1
0	1393	746.807198731745	0
0	1396	748.671151044624	1
0	1397	748.856319652691	0
0	1400	750.309818544635	1
0	1401	751.105173150273	0
0	1404	751.247667711397	1
0	1406	751.986581814979	2
0	1408	752.161248793853	3
0	1409	754.972443767996	2
0	1411	755.566440387237	1
0	1413	756.143175530649	0
0	1420	763.496496501939	1
0	1422	763.746430266731	2
0	1424	764.605969254055	3
0	1425	764.953642161239	2
0	1427	765.201482161436	1
0	1430	766.473805635468	2
0	1431	768.726035937101	1
0	1433	768.756564580003	0
0	1464	785.662500071458	1
0	1465	785.990839984163	0
0	1468	786.808938646512	1
0	1469	787.703334980921	0
0	1476	789.692680356662	1
0	1477	790.654550255212	0
0	1480	791.044856455937	1
0	1482	791.597947368051	2
0	1483	791.970251382248	1
0	1485	792.716638477455	0
0	1492	798.711660617584	1
0	1494	799.425940976885	2
0	1495	799.610645682029	1
0	1497	800.188798418093	0
0	1520	809.17109917467	1
0	1522	809.452742464619	2
0	1523	809.64101908641	1
0	1525	810.313021145825	0
0	1532	811.456178570663	1
0	1533	811.718148851811	0
0	1584	836.70547360902	1
0	1586	837.548753429308	2
0	1587	838.265243037724	1
0	1589	838.518905617694	0
0	1592	840.099327271401	1
0	1594	840.385859506933	2
0	1596	841.566479624709	3
0	1597	843.173427591042	2
0	1599	843.465388373	1
0	1601	844.216033332745	0
0	1608	847.33478621899	1
0	1609	848.084397157937	0
0	1612	848.09989807206	1
0	1614	848.36821356229	2
0	1615	849.248315424605	1
0	1618	849.324939974996	2
0	1620	849.843084152465	3
0	1621	849.948230061578	2
0	1624	850.391725018175	3
0	1626	851.079715881492	4
0	1627	851.470141650466	3
0	1629	852.408555134363	2
0	1631	854.530823570729	1
0	1633	855.448184509758	0
0	1656	875.714374184963	1
0	1658	876.069369861853	2
0	1660	876.130415997927	3
0	1661	876.535396679028	2
0	1663	876.628417430014	1
0	1666	877.225557158019	2
0	1668	877.981366869847	3
0	1670	878.641754246133	4
0	1672	878.656262713866	5
0	1673	880.348543214577	4
0	1675	880.553714106187	3
0	1678	880.898816931544	4
0	1679	881.037749246859	3
0	1681	881.176804147563	2
0	1683	881.384175333994	1
0	1685	881.981906198734	0
0	1700	893.039981193018	1
0	1701	893.559933421945	0
0	1712	905.60228572557	1
0	1713	906.260215418804	0
0	1728	911.362989929368	1
0	1729	911.544028994562	0
0	1732	911.575596240713	1
0	1734	912.139740447472	2
0	1736	912.183836587688	3
0	1737	912.219188422596	2
0	1739	912.829918695502	1
0	1741	912.930813410272	0
0	1744	914.529130198591	1
0	1745	915.074479203344	0
0	1760	920.792999148456	1
0	1761	921.071021346706	0
0	1772	922.408691135973	1
0	1774	924.265622470839	2
0	1775	924.679437856241	1
0	1778	925.478201146186	2
0	1780	926.195209284116	3
0	1781	926.650332359785	2
0	1783	926.908896854786	1
0	1786	927.837558541098	2
0	1788	930.447260340938	3
0	1790	930.51181801555	4
0	1792	931.141167360339	5
0	1793	931.680431060014	4
0	1796	932.707438182804	5
0	1797	933.06601714602	4
0	1799	933.280452730115	3
0	1801	933.386550627932	2
0	1803	933.935695398261	1
0	1806	934.122289198402	2
0	1807	934.419832950264	1
0	1809	934.473416802079	0
0	1816	937.891164258298	1
0	1818	938.793389862674	2
0	1819	940.09745606433	1
0	1822	940.170597481747	2
0	1823	940.431193284946	1
0	1825	940.771238366487	0
0	1836	944.835814684065	1
0	1837	944.894994126975	0
0	1860	955.76544430071	1
0	1862	956.415242183781	2
0	1863	956.831402676462	1
0	1865	957.03264389938	0
0	1892	974.805142847691	1
0	1894	975.060662900868	2
0	1895	976.088971985101	1
0	1898	977.218067374433	2
0	1899	978.397275598521	1
0	1901	978.88938449251	0
0	1924	998.681701459459	1
1	8	4.393469137312	2.936758034973
1	10	5.915260274792	2.246688454503
1	12	6.247097455573	2.169419559106
1	16	7.227736565533	0.249802466852
1	20	9.843205711145	1.159069821964
1	24	10.033507942882	0.18288876744
1	30	10.755597535357	0.49830840245
1	34	11.718069241485	1.250458772663
1	36	12.248978694664	1.285336022361
1	40	14.549698707824	0.002467920953
1	44	17.814593625268	2.154442506603
1	48	20.632028511736	2.162367090889
1	54	30.357528520643	0.357260380731
1	56	31.248107319572	1.247672985227
1	64	41.292386392058	3.836308941526
1	66	42.689254925601	4.146751083441
1	68	42.756544364144	1.925414252408
1	72	44.91019647643	0.349195081229
1	76	46.630161762272	0.339585289825
1	82	49.02403007779	1.728595059015
1	86	50.008019081512	1.406369166551
1	88	50.125089794579	0.531761747694
1	92	51.794055734002	0.000528951347
1	96	57.465927035239	2.850182533621
1	100	58.356012513242	0.152569479961
1	106	59.128855651159	0.547483595782
1	108	59.554252234427	0.495976366492
1	114	65.251165514267	2.038568989394
1	116	65.810834480506	1.464399589364
1	122	70.287279484618	1.764639464455
1	126	71.552602438767	1.757916968347
1	128	71.679557439461	1.164573180085
1	134	74.33847905659	0.907291766961
1	136	74.477461042066	1.025478485095
1	140	75.788213431992	0.08070485443
1	144	78.762689975358	1.779071835045
1	148	79.619106437791	0.624340813813
1	152	84.233678138232	0.176752064226
1	156	85.133339046576	0.794018434786
1	160	88.884867909335	0.88791180013
1	164	91.923075256622	1.485510102736
1	168	98.381529590611	1.066664479703
1	174	102.822153017286	0.81578217957
1	178	103.018468762613	0.319197478516
1	180	103.293673703924	0.275387490055
1	184	104.028183094223	0.7053303621
1	190	109.999530584221	0.50541644246
1	194	110.659349733971	1.164388308758
1	200	113.777020193352	3.595071750778
1	202	115.88424081632	4.360419901115
1	208	116.588973494501	5.004363291816
1	210	117.809049093917	1.586965504659
1	212	119.56765969173	3.111064004787
1	218	120.15775056775	0.263748573739
1	220	120.240106059209	0.290950673478
1	224	120.996974829841	0.626915572829
1	228	125.43167887379	2.111764813069
1	232	126.495532119764	0.159585659886
1	236	133.678812222401	0.262991157081
1	240	136.980125683825	2.500375383699
1	244	137.795378012212	0.138186239006
1	252	141.403893909995	2.481804179509
1	256	143.137074853348	3.044728888535
1	260	143.969152369263	2.929321323396
1	262	144.119950801672	2.544890079214
1	264	144.414497474665	0.925280200745
1	268	150.143523532922	0.598301015747
1	274	159.896912691381	3.594216021422
1	276	160.170522241493	3.804498352384
1	280	161.862150258297	0.221496545066
1	286	164.282976810247	1.164580220476
1	290	166.147366318666	2.939490866167
1	294	166.751250985025	1.160788696423
1	296	166.858134910439	0.69871805882
1	300	176.170033144166	0.975106904957
1	304	178.340653981689	0.08716695713
1	308	179.682513660661	0.054738266418
1	312	181.825050122394	0.423850808039
1	320	184.852795640281	2.358893288068
1	322	185.382024091959	1.908474124702
1	324	185.866900890979	1.050525793681
1	328	188.118612565861	0.097310786987
1	332	188.847656172376	0.135504772195
1	336	191.553590141267	0.76442252932
1	340	195.607888517567	0.707863323943
1	344	201.104225209521	0.70024183869
1	348	203.205188953302	0.135369396848
1	352	205.327336971624	1.566812373163
1	358	207.711677217912	0.906467279631
1	362	209.129542209905	1.554888535255
1	366	209.74455142481	1.95925120236
1	368	209.82192849655	0.432186532344
1	374	212.991156484973	0.92252977171
1	376	213.563147069547	0.76510559233
1	380	214.181578573077	0.006449051604
1	384	218.032836707051	0.047752073354
1	388	221.367504115935	0.542561245115
1	394	223.733673803805	2.105915723795
1	396	224.301100981658	1.093758591782
1	400	226.432870799776	1.031309429692
1	404	234.032765006457	0.840139675864
1	408	234.727196952831	0.274676225772
1	414	236.516120570274	0.350560541112
1	416	236.521158159026	0.071827757897
1	420	237.208560873227	0.137991096182
1	426	241.563353155277	0.753226364492
1	428	242.606043590508	1.236920720381
1	432	242.916762085738	0.157077241637
1	438	244.395598803998	1.175674534681
1	440	245.32590021079	1.476965437249
1	448	249.586328894481	3.311670650721
1	450	251.675596873043	3.578373438315
1	454	252.406060624778	3.846889937721
1	460	253.331077335586	1.070739696523
1	462	253.356062232926	0.636089261822
1	468	256.447302288219	3.238498879258
1	470	257.132428357977	3.744878584827
1	472	257.949659523399	4.505248898574
1	476	258.285232904534	0.331308528417
1	482	260.017429007502	1.019957887487
1	484	260.557045313441	1.441403579468
1	492	263.613961276935	0.986800387147
1	496	264.065780780736	1.352318477399
1	498	264.218012966706	1.412086971333
1	502	264.725418838125	0.909704187841
1	506	266.621103342131	2.086851611063
1	512	268.445832612912	2.844150213848
1	514	268.80985933626	0.840272806048
1	520	269.223646399269	0.897174090863
1	532	273.746082299445	4.747600346127
1	534	273.882366333434	4.660651715056
1	536	273.984271673501	3.439678725028
1	548	275.514707819787	3.999502296383
1	550	275.889020824538	4.057450449535
1	552	277.320129101517	4.691220162879
1	554	277.322044602342	4.473268092367
1	556	278.058914744137	3.70433034971
1	558	278.105777059151	3.703877502187
1	560	278.236281305429	3.475495284227
1	562	278.461936402222	3.279612870632
1	568	285.02375131727	9.798379456476
1	570	287.217619356682	5.433793633555
1	578	290.427654707038	7.058064272615
1	580	290.781808402065	3.029018479877
1	582	292.412296972693	4.502445381686
1	584	292.617100875296	3.043417008855
1	588	294.246413825789	1.518011544914
1	592	294.865707164891	0.168672824253
1	596	298.538845728924	0.919092013265
1	600	300.86546834402	1.339563556276
1	606	303.30214940852	0.835434730622
1	608	304.883871516419	1.881887113691
1	614	308.024838944834	2.620864025429
1	616	308.109158191304	0.485565447458
1	620	310.660244461517	0.123884157389
1	624	312.023869697883	0.120814013921
1	628	312.947880642701	0.339583199122
1	632	314.335607500708	0.801629008997
1	636	315.567340612001	0.588145184698
1	640	320.310743388231	0.596922838287
1	644	323.962601487365	1.16685352286
1	648	325.849780569708	0.161164578655
1	652	329.258763691746	0.127438588646
1	656	331.817337371865	0.151583040755
1	662	336.01213067988	1.861865345928
1	664	336.476603672825	1.272817447623
1	668	338.506896707682	0.945034091155
1	674	341.143215379973	2.415841489793
1	676	341.345391940252	1.163946646663
1	680	341.503945598427	0.05141859826
1	684	341.976130929609	0.305919883153
1	688	342.836496784658	0.47853167984
1	694	348.809231912182	0.767630537777
1	696	349.039818938593	0.59090355608
1	700	350.674421855636	1.417640347726
1	704	352.275130701409	0.960351007035
1	708	355.134744385008	1.509194815823
1	712	358.877596830046	0.215991273759
1	716	368.079110680165	0.282341966991
1	720	369.304247610104	1.023217788876
1	726	370.715497539176	0.511004566089
1	730	374.004835199197	3.354055150374
1	738	375.447352866315	1.451982192224
1	740	375.574250653169	0.747500269596
1	746	378.906904409453	4.011492462519
1	750	380.50947564786	5.23949684759
1	752	381.438565464578	4.381780322569
1	754	381.666571386972	3.808026006028
1	756	381.911825277253	2.77227825123
1	760	382.821844465837	0.029196081803
1	764	383.839116753995	0.71910838777
1	768	387.268135957186	2.805754364969
1	772	393.405714468974	0.85931677052
1	782	399.282684305726	3.062750305018
1	786	403.970246557142	7.692799950589
1	788	404.649980693648	7.188192372558
1	790	404.871860875633	6.099576618311
1	792	406.631349965968	6.885253102808
1	796	407.035838656961	0.323354079879
1	800	410.228839769692	0.070228607827
1	806	412.322649351557	1.277835005845
1	808	412.452312385372	1.389836641101
1	816	416.264272842904	1.658451497499
1	818	416.571558266444	0.8691102955
1	820	416.990815827392	1.065221767086
1	824	421.760836752881	0.374889654667
1	830	422.710769875069	0.917033765781
1	832	423.896710749464	1.587642045094
1	836	425.061916132474	0.046223182396
1	840	432.325313023594	0.985468469585
1	844	435.180292367024	0.192974159964
1	848	436.394782910092	0.084432217555
1	852	436.999351432742	0.376441929337
1	856	439.281697178082	0.534646548997
1	860	441.177706656253	0.502182846126
1	864	447.321517977005	1.283884099481
1	872	448.399838565688	0.716671199844
1	876	449.065449357506	1.299028390483
1	884	453.297436345166	5.21993533207
1	886	454.377209085601	5.457599196539
1	888	454.805060774761	4.619809817934
1	890	454.820396642688	3.05257238862
1	896	456.349112388157	4.130892594809
1	898	456.828809238228	1.008487811461
1	902	458.892580227723	2.989686005506
1	904	459.421316905976	1.412990498613
1	908	463.611290447242	0.203536187136
1	912	464.073439388549	0.097809443631
1	916	467.607911882383	0.814996555166
1	924	471.748082758203	3.764969568332
1	930	473.088077638393	2.907368610154
1	936	474.796225401104	3.576163912479
1	940	475.82588920657	3.904663065775
1	942	476.629522558489	3.709319159989
1	944	476.660111423631	3.257681995393
1	946	476.981265027718	3.095165208382
1	948	479.281969365281	4.394080694555
1	954	479.661545941934	0.344048730124
1	958	483.609810031011	4.103684153784
1	960	485.090874161225	4.105084314986
1	964	488.187360649839	1.673675120371
1	970	491.903786447868	0.643826030954
1	972	492.264020740078	0.771195765987
1	976	498.32427460838	0.391744981053
1	982	501.462637938794	2.175631575162
1	986	502.023954136406	2.535946761626
1	988	502.027037523739	0.144483658492
1	992	505.250840914699	0.964947342799
1	996	508.4706375163	1.017257072274
1	1002	510.135845918951	0.92163955278
1	1004	510.224565296699	0.860241918008
1	1008	512.225142137669	0.209227867956
1	1012	514.885053033648	1.483182713447
1	1018	515.942212316057	0.892339843114
1	1020	517.100689856518	1.857864643206
1	1024	524.842937881022	0.075900008543
1	1030	529.739827320952	0.824321423021
1	1032	530.039082116467	0.492956891554
1	1036	533.499117902403	0.249979918845
1	1040	537.173339528443	0.122281260194
1	1044	549.049575311646	0.104312105537
1	1048	551.753777013519	0.279539261432
1	1052	555.619621529258	1.37058873851
1	1060	558.872413580514	0.902344761
1	1062	559.10625126182	0.595759518564
1	1064	559.57718082067	0.842652858275
1	1068	560.541483404406	0.267893140086
1	1072	564.379819807419	0.893587214542
1	1078	566.389650304152	1.842864399603
1	1080	567.03838621391	1.031276707205
1	1084	575.689989865855	0.087457443156
1	1090	579.940338089127	2.706681953929
1	1094	580.606023049722	0.826324772557
1	1096	580.739966807896	0.493859966491
1	1100	583.321531998132	1.828461435024
1	1104	585.245981437702	0.481921803945
1	1108	587.108540985602	0.115067750604
1	1112	593.044201492846	3.11017167175
1	1118	596.457098630989	0.421061702944
1	1120	596.697845904896	0.640626786759
1	1124	600.343142653721	0.613706801864
1	1128	600.724589758258	0.025210437653
1	1132	603.286194097423	0.281330386128
1	1136	605.248579625752	1.059328308887
1	1140	607.089747665939	0.411548768968
1	1144	609.671358183721	0.021795433798
1	1148	611.690019669756	0.318019086628
1	1154	615.735735341098	3.256814988907
1	1156	616.982357325987	2.44240785888
1	1160	621.552455732074	0.950010201347
1	1164	624.800414302128	0.043527593533
1	1172	628.781765631297	3.853041611281
1	1176	629.873265285435	2.81112322947
1	1180	632.764702780022	5.157655598893
1	1182	633.619682697985	4.425223116809
1	1188	634.878983752896	4.249705836037
1	1190	635.384926837819	1.423485719352
1	1192	635.543875759842	0.982865261955
1	1196	639.007575033233	0.892209998747
1	1204	641.504258123906	1.878060444456
1	1214	643.074411675771	3.322417978032
1	1216	643.252948878642	2.178922121609
1	1220	643.392912971334	1.480582661541
1	1222	643.907415824204	1.68210574469
1	1226	644.83777634018	2.231695682097
1	1228	644.936625856109	1.924724988962
1	1230	644.97193671728	1.679350824576
1	1232	644.999090608351	0.598229798834
1	1236	645.438923016049	0.092900081579
1	1240	648.254054428795	0.316998677796
1	1244	651.141944700318	0.418927339593
1	1250	657.068983952745	1.499352772761
1	1252	658.430107236435	2.685617574736
1	1256	671.263562390205	0.116508517156
1	1260	672.26505830047	0.650219803344
1	1264	673.872989884131	1.043797027306
1	1268	676.764662746425	1.848639050056
1	1272	683.609768972403	0.491789396163
1	1278	685.313284216285	0.378669871973
1	1280	685.852653822548	0.727472530102
1	1286	687.637393528502	0.582961147835
1	1290	688.596492920688	1.238533250416
1	1300	694.176927348523	5.664326073913
1	1302	695.270673638688	5.177229075577
1	1306	696.035344065905	4.8403339748
1	1308	696.474746128287	3.167578060466
1	1310	697.362351072853	3.599271162791
1	1312	699.293122933607	3.511522647141
1	1316	700.209682491663	0.17828461682
1	1320	702.311266065843	1.451681394382
1	1324	704.680185374061	1.418122993419
1	1328	707.512068041071	0.050732452184
1	1332	708.664207815605	0.608417308772
1	1338	709.993200009413	1.248260122913
1	1340	710.838278583445	0.944428853037
1	1344	714.477609803298	0.44778538572
1	1348	715.656850148725	0.31828293288
1	1352	723.838052633683	0.050205676853
1	1356	724.238026417073	0.090490009038
1	1368	729.91397863739	5.333496895545
1	1370	730.324246855046	5.254917399429
1	1372	730.340832630551	4.637780409127
1	1374	730.382124680212	2.686838030234
1	1376	730.509662155183	1.299176912051
1	1380	732.876360255166	0.50291734036
1	1384	741.517975966575	1.858301240853
1	1388	744.040490785403	0.354515092733
1	1394	746.807198731745	0.215730617863
1	1398	748.856319652691	2.06751159789
1	1402	751.105173150273	2.434022105649
1	1410	754.972443767996	4.662625223361
1	1412	755.566440387237	4.31877267584
1	1414	756.143175530649	4.15659371567
1	1416	756.401095403564	4.239846609711
1	1426	764.953642161239	1.632029016859
1	1428	765.201482161436	1.704985659497
1	1432	768.726035937101	4.97960567037
1	1434	768.756564580003	4.150595325948
1	1436	769.404770887035	2.930965251567
1	1440	769.825923673051	0.053054672625
1	1444	773.759721392746	0.476364007008
1	1448	775.300147297988	0.671010254582
1	1452	782.108222030846	1.132294342744
1	1456	782.59627089312	0.354370591648
1	1460	782.947977380228	0.015252339457
1	1466	785.990839984163	0.915288741767
1	1470	787.703334980921	2.040834909463
1	1472	787.939547977086	1.130609330574
1	1478	790.654550255212	1.00450943449
1	1484	791.970251382248	2.277571025586
1	1486	792.716638477455	1.671782021518
1	1488	792.808476465211	1.21052909716
1	1496	799.610645682029	1.149539975452
1	1498	800.188798418093	1.477137800509
1	1500	800.374253881034	0.948312904149
1	1504	801.728764363625	0.622444325075
1	1508	805.691064529856	0.012499154185
1	1512	808.024650178452	0.023442381164
1	1516	808.194992307847	0.019184603831
1	1524	809.64101908641	0.514094029671
1	1526	810.313021145825	1.141921971155
1	1528	810.617581599453	1.164839134834
1	1534	811.718148851811	0.731762085136
1	1536	812.367837910831	0.911659340168
1	1540	813.032221034202	0.345635210954
1	1544	816.998334870865	0.519530995508
1	1548	819.742766412626	0.643012545487
1	1552	820.429817203809	0.575224046136
1	1556	820.798121007917	0.016510373065
1	1560	822.344219730823	1.222685869682
1	1564	826.176801140492	1.424130626807
1	1568	826.863238032025	0.318058261845
1	1572	828.939733026466	0.626677795617
1	1576	830.53430224274	1.289096516648
1	1580	831.134154221229	0.086464432321
1	1588	838.265243037724	1.891316677956
1	1590	838.518905617694	1.813432008674
1	1598	843.173427591042	5.624674161734
1	1600	843.465388373	3.366061101599
1	1602	844.216033332745	3.830173825812
1	1604	844.391483097826	2.825003473117
1	1610	848.084397157937	2.045830800755
1	1616	849.248315424605	1.913529205615
1	1622	849.948230061578	1.848331989518
1	1628	851.470141650466	3.101928088176
1	1630	852.408555134363	3.083615159367
1	1632	854.530823570729	4.687739418264
1	1634	855.448184509758	5.056459491583
1	1636	855.740351244558	4.660635363066
1	1640	859.429281369804	0.986514936268
1	1644	863.844409242014	0.682903453055
1	1648	867.821276280646	0.075738192953
1	1652	873.997121449557	0.788071116029
1	1662	876.535396679028	2.052675825265
1	1664	876.628417430014	0.914043245051
1	1674	880.348543214577	4.279173352724
1	1676	880.553714106187	4.42329810826
1	1680	881.037749246859	3.81219208884
1	1682	881.176804147563	3.195437277716
1	1684	881.384175333994	2.742421087861
1	1686	881.981906198734	3.325643484868
1	1688	882.997674083632	2.098857152088
1	1692	886.085773465888	1.038243842515
1	1696	889.810884643818	0.202102408119
1	1702	893.559933421945	1.034853343422
1	1704	893.710544942086	0.670563749068
1	1708	899.589768678898	1.129731539925
1	1714	906.260215418804	2.818683589214
1	1716	906.639892154773	1.037606429203
1	1720	907.008476952067	0.081471475807
1	1724	907.510860292288	0.086373539991
1	1730	911.544028994562	1.14641318152
1	1738	912.219188422596	0.856198493228
1	1740	912.829918695502	1.254322454789
1	1742	912.930813410272	0.7910729628
1	1746	915.074479203344	2.890642615656
1	1748	915.53002978721	1.000899588619
1	1752	917.109776649896	0.560613203315
1	1756	918.327168761386	0.330547389451
1	1762	921.071021346706	0.505505144877
1	1764	921.269072428132	0.476073279676
1	1768	921.556521356393	0.096234851542
1	1776	924.679437856241	2.704864621931
1	1782	926.650332359785	4.241641223812
1	1784	926.908896854786	2.643274383947
1	1794	931.680431060014	6.202229913828
1	1798	933.06601714602	6.870807861904
1	1800	933.280452730115	5.442894189017
1	1802	933.386550627932	2.939290286994
1	1804	933.935695398261	3.423877382711
1	1808	934.419832950264	3.278665589925
1	1810	934.473416802079	1.765978619275
1	1812	936.423194028948	2.300904830546
1	1820	940.09745606433	2.704640040774
1	1824	940.431193284946	2.540029026648
1	1826	940.771238366487	1.977848503813
1	1828	941.3154749495	1.144877467753
1	1832	942.788471644811	0.102655424045
1	1838	944.894994126975	0.71902412789
1	1840	945.263499495153	0.427684811088
1	1844	948.505315571732	0.068521487813
1	1848	950.282595126166	0.425107146706
1	1852	951.755312617485	0.399862621783
1	1856	953.314614262818	0.843153873597
1	1864	956.831402676462	1.468016224127
1	1866	957.03264389938	1.26719959867
1	1868	957.814965132512	1.399722948731
1	1872	958.4753421762	0.179820833571
1	1876	960.483876224896	0.1132697325
1	1880	960.929702175927	0.212095052973
1	1884	964.317655432245	1.28960662619