version 3
run General-11-20221028-09:56:52-16128
attr configname General
attr datetime 20221028-09:56:52
attr datetimef 20221028-095652
attr experiment General
attr inifile simu_1.ini
attr iterationvars ""
attr iterationvarsd ""
attr iterationvarsf ""
attr measurement ""
attr network Rete
attr processid 16128
attr repetition 11
attr replication #11
attr resultdir results
attr runnumber 11
attr seedset 11
config network Rete
config record-eventlog false
config repeat 30
config sim-time-limit 1000s
config simtime-resolution ps
config **.Servente.serviceTime exponential(1s)
config **.Arrivi.interArrivalTime exponential(2s)

vector 0 Rete.Servente queueLength:vector ETV
attr interpolationmode sample-hold
attr recordingmode vector
attr title "queue length"
vector 1 Rete.Pozzo lifeTime:vector ETV
attr interpolationmode none
attr recordingmode vector
attr title "lifetime of arrived jobs"
attr unit s
0	0	0	0
0	12	3.156273729876	1
0	13	4.015387672377	0
0	20	8.593570892855	1
0	21	9.035734371535	0
0	36	17.332785680544	1
0	37	19.040408108253	0
0	48	25.703101069645	1
0	49	26.487312238969	0
0	80	54.479855777771	1
0	81	55.851787593843	0
0	104	65.826387251258	1
0	105	66.736525594007	0
0	120	73.278484017082	1
0	121	73.700219122689	0
0	124	75.220411682045	1
0	125	75.58395574213	0
0	128	76.388898541075	1
0	129	76.849269261731	0
0	136	81.091059331548	1
0	137	81.75168711919	0
0	140	82.503221787086	1
0	142	83.753847509223	2
0	143	84.729626587869	1
0	145	85.865651336507	0
0	156	94.831887052947	1
0	157	95.309390280935	0
0	164	95.93555509366	1
0	165	96.30116911262	0
0	168	96.372334221438	1
0	169	96.373764322392	0
0	180	97.75391211793	1
0	181	98.084738345459	0
0	188	105.167503909673	1
0	189	105.262109778445	0
0	204	118.898163823426	1
0	205	119.242752141538	0
0	228	142.951318300652	1
0	229	143.651752637929	0
0	236	146.546916222782	1
0	237	147.271134725378	0
0	244	153.39835272268	1
0	246	154.791750105366	2
0	247	155.284837249779	1
0	250	155.814496414248	2
0	251	156.559824733056	1
0	254	156.702195093912	2
0	255	157.024906633379	1
0	257	157.197558792527	0
0	264	160.099770752009	1
0	265	161.045161937902	0
0	268	162.203880514186	1
0	270	162.285926865911	2
0	271	162.710993370814	1
0	273	162.969848767307	0
0	276	164.341572149601	1
0	278	165.564380950618	2
0	279	166.126784516016	1
0	282	166.376935090918	2
0	283	166.461530370699	1
0	285	167.766391427336	0
0	288	169.057685961314	1
0	290	169.700229367379	2
0	292	170.514254439323	3
0	294	170.716467771834	4
0	295	170.758795417364	3
0	298	172.608071595345	4
0	300	173.51844403793	5
0	302	173.706152999145	6
0	303	174.402709900153	5
0	305	174.745850330449	4
0	307	174.823814027505	3
0	309	174.940936202854	2
0	312	174.944238226997	3
0	313	174.960469096915	2
0	316	175.244840058203	3
0	317	176.386125952153	2
0	319	176.988992248356	1
0	322	177.134541802718	2
0	323	177.48213219995	1
0	325	178.041306138204	0
0	328	179.084681588888	1
0	329	179.388193331247	0
0	352	191.358819964982	1
0	354	191.407850758405	2
0	355	191.914878532752	1
0	357	193.891712245339	0
0	364	196.167611189749	1
0	365	196.762397879419	0
0	372	198.053413622865	1
0	373	199.075778274958	0
0	380	199.568119160488	1
0	381	200.069053878196	0
0	388	201.599852899239	1
0	390	202.069500609307	2
0	391	202.213042847206	1
0	393	204.181491921388	0
0	396	204.219442622747	1
0	397	205.038473111256	0
0	424	222.61033846298	1
0	425	222.612026761256	0
0	432	223.83563527661	1
0	433	223.897301033521	0
0	436	224.145620848209	1
0	438	224.298022145306	2
0	439	225.132768018587	1
0	441	225.700051118755	0
0	452	233.805660560515	1
0	453	234.146801840299	0
0	464	242.486527189725	1
0	465	242.524017018242	0
0	468	244.877225344535	1
0	469	244.944503862002	0
0	488	256.024246311279	1
0	489	256.929503435557	0
0	500	265.755909219868	1
0	501	266.467240918911	0
0	512	273.36819001874	1
0	514	274.143311148398	2
0	515	274.233222343822	1
0	517	276.663351111204	0
0	544	291.837975841678	1
0	546	292.901078066351	2
0	548	293.445604117867	3
0	550	293.857407602207	4
0	551	293.931549696628	3
0	554	294.948209890229	4
0	555	295.046117322363	3
0	557	295.721237408609	2
0	559	296.626308044077	1
0	561	297.670973260751	0
0	568	301.72988585034	1
0	569	302.158127322033	0
0	576	306.691191852209	1
0	578	307.410044056117	2
0	579	307.770760338568	1
0	581	307.770932605939	0
0	600	316.145519791514	1
0	602	316.219231992044	2
0	603	318.297266264812	1
0	605	318.743529911643	0
0	620	325.765999734036	1
0	622	326.81270635294	2
0	623	327.027000175029	1
0	625	327.338481777408	0
0	644	335.074330062406	1
0	646	335.138522106916	2
0	647	336.923207396382	1
0	649	337.30122570671	0
0	656	344.199847707018	1
0	657	344.228688253176	0
0	660	344.688304879438	1
0	661	348.125492827757	0
0	676	359.604263531807	1
0	677	359.958644945363	0
0	680	360.019042222569	1
0	681	360.398437672883	0
0	700	371.313518111632	1
0	702	371.891194227846	2
0	704	372.785581392514	3
0	706	372.869163269835	4
0	708	373.436538457647	5
0	709	373.696165968766	4
0	711	373.750571330255	3
0	713	374.314220308013	2
0	715	376.095989502428	1
0	717	376.899840809349	0
0	724	380.143622874629	1
0	725	380.689572819867	0
0	732	382.639368090103	1
0	733	384.51659701242	0
0	736	384.986374904813	1
0	738	385.65608823276	2
0	740	386.079312852053	3
0	741	386.200978718641	2
0	743	386.394446342083	1
0	745	387.486721363977	0
0	748	387.710439573943	1
0	750	388.914191924793	2
0	752	389.60209854639	3
0	753	390.740907565689	2
0	755	392.304481145796	1
0	757	392.505577231094	0
0	768	395.99902115285	1
0	769	396.729235553488	0
0	776	401.898013507564	1
0	778	402.351388108332	2
0	779	402.457264637353	1
0	781	402.577307654869	0
0	808	415.063583402872	1
0	810	415.1957165424	2
0	811	415.882722881065	1
0	813	416.455948636317	0
0	816	416.875792323284	1
0	817	417.381599405011	0
0	824	420.129962981126	1
0	826	420.358484753802	2
0	827	420.691315899318	1
0	829	421.142236719526	0
0	832	421.872915174563	1
0	834	422.963864209997	2
0	835	423.118347136898	1
0	838	423.831505695464	2
0	840	424.13460754808	3
0	841	424.180625701021	2
0	843	424.431496489205	1
0	845	424.487053987307	0
0	852	427.647613819944	1
0	853	427.788942652511	0
0	860	429.924741021095	1
0	862	431.008467048594	2
0	863	431.673451992117	1
0	866	432.580690886737	2
0	868	432.889845302306	3
0	870	433.221173988973	4
0	871	435.046301600014	3
0	874	435.174830413506	4
0	875	435.805062558789	3
0	878	436.129280703508	4
0	879	436.328684306757	3
0	881	438.6018602001	2
0	883	438.854997185181	1
0	885	440.200579833011	0
0	920	458.190138651823	1
0	921	458.347814018117	0
0	924	458.555297269899	1
0	925	458.885342257364	0
0	940	464.726743564272	1
0	941	466.966099206717	0
0	944	467.360930007322	1
0	946	467.932599211026	2
0	947	469.111738417223	1
0	949	470.205729193983	0
0	960	476.895402579459	1
0	961	477.782257540882	0
0	968	479.500916962103	1
0	969	479.714345063598	0
0	996	502.336950121892	1
0	997	502.534414415664	0
0	1000	502.710675758988	1
0	1001	502.971529069388	0
0	1028	523.256888585424	1
0	1029	523.906581847989	0
0	1048	539.449678576396	1
0	1049	539.557276352675	0
0	1084	579.503354575325	1
0	1086	579.757462704763	2
0	1087	579.920961620708	1
0	1089	580.301474420302	0
0	1096	581.270236642611	1
0	1097	581.591359396866	0
0	1100	583.032273593048	1
0	1101	583.803232277081	0
0	1112	594.545947727775	1
0	1113	594.661419027855	0
0	1124	598.605803964948	1
0	1125	600.029493614288	0
0	1140	615.285586516712	1
0	1141	615.603622869736	0
0	1148	619.5899041067	1
0	1149	621.015313565029	0
0	1180	635.057062447848	1
0	1181	635.733667481328	0
0	1212	651.636917099984	1
0	1213	652.130303901025	0
0	1216	653.333546455445	1
0	1217	653.698669331246	0
0	1228	658.077564641012	1
0	1229	658.681720925986	0
0	1240	669.830893884151	1
0	1241	671.616621348884	0
0	1244	673.41413182135	1
0	1246	674.355488844292	2
0	1248	674.433794145897	3
0	1249	674.591684912042	2
0	1251	674.594753738594	1
0	1254	675.051437962526	2
0	1255	675.423156322304	1
0	1257	675.723031263766	0
0	1276	682.662159752849	1
0	1278	682.911183835091	2
0	1279	683.651963732483	1
0	1281	684.494873420525	0
0	1296	689.951640625965	1
0	1298	690.647303612975	2
0	1299	691.172341984761	1
0	1301	691.606370603855	0
0	1308	692.837333153888	1
0	1310	694.090624303862	2
0	1311	694.471461819892	1
0	1314	694.779390071826	2
0	1316	695.781487682546	3
0	1318	698.376575540239	4
0	1319	699.101638039817	3
0	1321	699.251172030806	2
0	1324	700.368630617282	3
0	1325	700.971294480315	2
0	1327	701.359001227431	1
0	1329	701.420623050603	0
0	1340	706.827903778325	1
0	1341	706.847108701669	0
0	1348	710.838973841126	1
0	1349	711.428559839126	0
0	1352	712.647882548919	1
0	1353	713.696550531346	0
0	1356	713.950802687576	1
0	1357	714.115401542092	0
0	1368	720.613422795244	1
0	1369	721.069572444226	0
0	1372	723.845113499317	1
0	1374	724.108020164965	2
0	1375	724.830200937832	1
0	1377	725.157979045384	0
0	1384	727.660867064328	1
0	1385	727.988694570375	0
0	1392	730.008335858974	1
0	1394	730.953071763216	2
0	1395	730.957310389793	1
0	1397	730.998990122573	0
0	1420	748.122650366966	1
0	1421	748.918270483013	0
0	1440	762.95817239677	1
0	1441	764.152401862303	0
0	1444	765.208015606665	1
0	1445	767.386230510219	0
0	1448	768.467651664063	1
0	1449	768.592410429403	0
0	1452	770.956577979443	1
0	1453	771.698739987723	0
0	1460	776.242942181661	1
0	1462	777.266881251805	2
0	1463	777.508130399692	1
0	1465	777.783705058141	0
0	1480	788.997950127269	1
0	1481	790.418621273861	0
0	1484	791.176681205102	1
0	1486	791.424370327917	2
0	1487	791.445500958245	1
0	1490	791.650799030412	2
0	1491	792.046800692815	1
0	1494	792.146847014039	2
0	1496	792.836738850484	3
0	1498	794.642826153036	4
0	1499	794.854664883074	3
0	1502	795.926652650088	4
0	1503	796.004597926847	3
0	1505	796.0667759817	2
0	1507	796.419970867795	1
0	1510	796.451009221863	2
0	1511	796.934256064786	1
0	1513	797.36569899211	0
0	1520	798.385210941502	1
0	1521	799.454286392963	0
0	1540	807.491922692897	1
0	1541	807.745071110136	0
0	1552	811.439797925917	1
0	1554	811.51309714383	2
0	1556	811.812862976041	3
0	1557	814.728947750529	2
0	1560	814.820555058016	3
0	1562	815.459638989151	4
0	1563	815.928962785133	3
0	1565	815.979985951633	2
0	1567	821.459416826489	1
0	1569	821.556659832988	0
0	1580	826.045398335869	1
0	1581	827.04805772282	0
0	1584	827.790270751098	1
0	1585	828.027655467403	0
0	1588	829.999477130226	1
0	1589	830.089805342696	0
0	1592	830.489150781277	1
0	1594	830.923252691423	2
0	1596	830.998450117074	3
0	1597	831.285729054529	2
0	1599	831.709655222151	1
0	1601	832.310045758603	0
0	1604	832.52799444387	1
0	1605	834.552733531058	0
0	1612	838.382283847317	1
0	1613	838.66262730697	0
0	1624	843.79295029347	1
0	1625	843.930092627612	0
0	1632	846.863008508535	1
0	1633	848.002757661579	0
0	1640	853.235507234046	1
0	1641	855.077301231506	0
0	1644	855.108124212045	1
0	1645	855.174218955087	0
0	1668	865.736672170423	1
0	1670	865.860873634313	2
0	1671	867.841166390508	1
0	1674	867.917990417797	2
0	1676	868.401667260793	3
0	1677	869.50669677095	2
0	1679	870.414310879784	1
0	1681	871.307526373794	0
0	1704	889.32600881923	1
0	1705	889.472256075242	0
0	1708	889.817413491778	1
0	1709	890.085202935494	0
0	1720	898.085848180041	1
0	1721	898.522388042317	0
0	1724	898.94467263638	1
0	1725	900.191143120782	0
0	1764	919.153717533559	1
0	1765	919.567206849256	0
0	1768	919.707784436841	1
0	1769	920.742329758007	0
0	1772	922.393214821763	1
0	1774	923.340174654253	2
0	1775	924.049452982191	1
0	1777	924.303954450847	0
0	1824	964.080541566615	1
0	1826	964.457202047935	2
0	1828	964.566862148394	3
0	1829	964.916651507451	2
0	1831	967.089440451751	1
0	1834	967.542311003023	2
0	1835	969.400500330527	1
0	1838	969.815764150646	2
0	1840	970.903450438908	3
0	1842	972.179564402502	4
0	1843	972.915656212317	3
0	1845	973.286245389215	2
0	1848	974.533133694193	3
0	1850	975.168821965799	4
0	1851	976.087117025033	3
0	1853	976.898499336917	2
0	1856	977.296309433881	3
0	1858	977.304792465948	4
0	1859	978.00215527606	3
0	1861	978.811723593755	2
0	1864	979.726768222422	3
0	1866	980.758288376523	4
0	1867	981.284882564294	3
0	1869	981.429830666799	2
0	1871	981.757450294866	1
0	1873	982.0444407053	0
0	1880	985.432273027071	1
0	1881	985.486090935287	0
0	1892	997.485993941605	1
0	1894	997.548688680515	2
0	1895	998.09270797974	1
0	1897	999.18481250099	0
1	4	0.417227157855	0.019667381508
1	8	1.161227497288	0.622164211451
1	14	4.015387672377	1.290743938604
1	16	4.560465950891	1.404192221015
1	22	9.035734371535	0.664418044099
1	24	9.048597559689	0.455026666834
1	28	9.773399593687	0.668204072302
1	32	16.482472129666	2.843984220327
1	38	19.040408108253	1.902434653028
1	40	20.349609828875	3.016824148331
1	44	21.857151582431	0.115114678545
1	50	26.487312238969	2.243412506158
1	52	28.43330212429	2.730201054645
1	56	28.961382105845	0.180427292161
1	60	31.553377646019	1.000580402703
1	64	33.243450912438	0.020696309886
1	68	35.579484169693	0.124132571237
1	72	42.853540301122	0.380334506146
1	76	51.589699333731	0.171871126075
1	82	55.851787593843	1.422873652184
1	84	57.557050269871	3.0771944921
1	88	59.98608657267	0.422546918808
1	92	61.005797578499	0.383897570306
1	96	61.161010254723	0.118402108614
1	100	61.586631665557	0.087687767638
1	106	66.736525594007	1.247318587887
1	108	67.651675462633	1.825288211375
1	112	68.865475399142	0.057283491682
1	116	70.781564442782	0.653536703351
1	122	73.700219122689	0.513623671801
1	126	75.58395574213	2.305471725048
1	130	76.849269261731	1.628857579686
1	132	77.770733490404	1.381834949329
1	138	81.75168711919	0.803819163829
1	144	84.729626587869	3.638567256321
1	146	85.865651336507	3.362429549421
1	148	86.2782227094	2.524375200177
1	152	92.664095021921	0.274271961576
1	158	95.309390280935	1.59177360413
1	160	95.375195134069	0.543308081122
1	166	96.30116911262	0.453525181976
1	170	96.373764322392	0.438209228732
1	172	96.758497398079	0.386163176641
1	176	97.739573986378	0.072982174528
1	182	98.084738345459	0.342861735632
1	184	99.645867742451	1.891955624521
1	190	105.262109778445	2.358101116217
1	192	106.835318869375	1.667814959702
1	196	114.881587036014	0.825122538584
1	200	116.282026609333	0.957160604957
1	206	119.242752141538	0.448607822724
1	208	119.427657793254	0.529493969828
1	212	122.195712542645	0.573128296494
1	216	123.553415178851	1.31985264492
1	220	129.85495183443	0.06495206866
1	224	132.001115890727	0.02095092878
1	230	143.651752637929	1.472061693631
1	232	144.008359026303	1.057040725651
1	238	147.271134725378	1.207861265643
1	240	148.597907098253	2.050990875471
1	248	155.284837249779	2.701640217579
1	252	156.559824733056	3.161472010376
1	256	157.024906633379	2.233156528013
1	258	157.197558792527	1.383062378279
1	260	158.643565376145	1.941370282233
1	266	161.045161937902	1.057320856096
1	272	162.710993370814	2.611222618805
1	274	162.969848767307	0.765968253121
1	280	166.126784516016	3.840857650105
1	284	166.461530370699	2.119958221098
1	286	167.766391427336	2.202010476718
1	296	170.758795417364	4.381860326446
1	304	174.402709900153	5.345023938839
1	306	174.745850330449	5.04562096307
1	308	174.823814027505	4.309559588182
1	310	174.940936202854	4.22446843102
1	314	174.960469096915	2.35239750157
1	318	176.386125952153	2.867681914223
1	320	176.988992248356	3.282839249211
1	324	177.48213219995	2.537893972953
1	326	178.041306138204	2.796466080001
1	330	179.388193331247	2.253651528529
1	332	179.930618731236	0.845937142348
1	336	181.13545196467	0.458261039338
1	340	181.869697947814	0.18516015071
1	344	184.316813050789	1.579259915881
1	348	189.682454610969	1.789985497647
1	356	191.914878532752	1.325060017188
1	358	193.891712245339	2.532892280357
1	360	194.935996710584	3.528145952179
1	366	196.762397879419	1.190945290254
1	368	196.97685189777	0.809240708021
1	374	199.075778274958	1.459433972772
1	376	199.482368357002	1.428954734137
1	382	200.069053878196	0.576180838009
1	384	200.453056334589	0.884937174101
1	392	202.213042847206	0.840000452203
1	394	204.181491921388	2.581639022149
1	398	205.038473111256	2.968972501949
1	400	205.421473255509	1.202030632762
1	404	206.950970936484	0.245904853397
1	408	209.159452108795	1.863933621775
1	412	210.238281616072	0.359772140758
1	416	215.346249649427	0.576646157822
1	420	219.05145519792	0.095866381041
1	426	222.612026761256	0.358074737836
1	428	222.701617615965	0.091279152985
1	434	223.897301033521	0.421157562094
1	440	225.132768018587	1.297132741977
1	442	225.700051118755	1.554430270546
1	444	226.681480120911	2.383457975605
1	448	231.908656638242	0.313757150603
1	454	234.146801840299	1.069176231397
1	456	235.132972845436	1.327312284921
1	460	240.712590644479	1.746703292675
1	466	242.524017018242	0.762913163524
1	470	244.944503862002	2.457976672277
1	472	245.481508638557	0.604283294022
1	476	248.252725368333	0.336934882002
1	480	249.876446404998	0.731904103546
1	484	253.779172006871	2.556835511201
1	490	256.929503435557	1.287032952559
1	492	257.610550126921	1.586303815642
1	496	262.421417378095	0.688152382747
1	502	266.467240918911	1.046177910794
1	504	267.061033668389	1.305124448521
1	508	268.183930116575	0.799929754134
1	516	274.233222343822	3.546519412285
1	518	276.663351111204	3.295161092464
1	520	278.500225736618	4.35691458822
1	524	279.66788660373	0.135874999787
1	528	281.467481938684	0.813105061271
1	532	287.214210560874	0.456380381792
1	536	290.255320421902	2.428097148672
1	540	290.92383063014	0.376410059173
1	552	293.931549696628	2.670262113813
1	556	295.046117322363	3.208141480685
1	558	295.721237408609	2.820159342258
1	560	296.626308044077	3.18070392621
1	562	297.670973260751	3.813565658544
1	564	300.361408828706	5.413198938477
1	570	302.158127322033	0.774032540188
1	572	302.416945813933	0.687059963593
1	580	307.770760338568	1.248143883782
1	582	307.770932605939	1.07974075373
1	584	308.475086476549	1.065042420432
1	588	309.031292839557	0.146743448634
1	592	309.635442098621	0.156559609864
1	596	312.77939818516	2.653634700773
1	604	318.297266264812	3.124890826516
1	606	318.743529911643	2.598010120129
1	608	319.186368662304	2.96713667026
1	612	323.024916280194	0.046955561295
1	616	323.929447435173	0.807273274243
1	624	327.027000175029	1.332979101481
1	626	327.338481777408	1.572482043372
1	628	327.392867058169	0.580160705229
1	632	329.166334356397	0.265115730532
1	636	332.85599956396	1.223781912903
1	640	334.003739488955	0.056660132482
1	648	336.923207396382	1.874035022315
1	650	337.30122570671	2.226895644304
1	652	337.585978265467	2.447456158551
1	658	344.228688253176	0.055634606666
1	662	348.125492827757	3.925645120739
1	664	349.583138355046	4.894833475608
1	668	353.056832530208	0.605498640398
1	672	354.962265793954	0.650579455538
1	678	359.958644945363	2.471039343576
1	682	360.398437672883	0.794174141076
1	684	360.453083770215	0.434041547646
1	688	365.101439854081	0.951841042322
1	692	367.685531830809	0.374758553718
1	696	370.542044023495	1.144318209743
1	710	373.696165968766	2.955551109083
1	712	373.750571330255	2.437053218623
1	714	374.314220308013	2.423026080167
1	716	376.095989502428	3.310408109914
1	718	376.899840809349	4.030677539514
1	720	376.981462883343	3.544924425696
1	726	380.689572819867	3.040216821461
1	728	381.914250611578	1.770627736949
1	734	384.51659701242	2.425123919205
1	742	386.200978718641	3.561610628538
1	744	386.394446342083	1.40807143727
1	746	387.486721363977	1.830633131217
1	754	390.740907565689	4.661594713636
1	756	392.304481145796	4.594041571853
1	758	392.505577231094	3.591385306301
1	760	392.692859251023	3.090760704633
1	764	394.101083672593	0.35537611954
1	770	396.729235553488	1.119295144135
1	772	397.014812757381	1.015791604531
1	780	402.457264637353	1.393791067529
1	782	402.577307654869	0.679294147305
1	784	402.963518003483	0.612129895151
1	788	406.934385251916	0.354830758896
1	792	407.352928387459	0.028124467659
1	796	409.266571153431	0.54932388958
1	800	411.319335391125	0.067686490026
1	804	413.547833748178	0.854856897901
1	812	415.882722881065	1.164547775062
1	814	416.455948636317	1.392365233445
1	818	417.381599405011	2.185882862611
1	820	418.297015781153	1.421223457869
1	828	420.691315899318	2.329416170241
1	830	421.142236719526	1.0122737384
1	836	423.118347136898	2.759862383096
1	842	424.180625701021	2.307710526458
1	844	424.431496489205	1.467632279208
1	846	424.487053987307	0.655548291843
1	848	426.063454052359	1.928846504279
1	854	427.788942652511	0.260954099206
1	856	429.269713647922	1.622099827978
1	864	431.673451992117	2.331363617141
1	872	435.046301600014	5.121560578919
1	876	435.805062558789	4.796595510195
1	880	436.328684306757	3.74799342002
1	882	438.6018602001	5.712014897794
1	884	438.854997185181	5.633823196208
1	886	440.200579833011	5.025749419505
1	888	440.467529659545	4.338248956037
1	892	441.569453060749	0.658477371303
1	896	444.520336518338	0.680338297325
1	900	444.833031599373	0.207966447744
1	904	445.440924039444	0.468941108573
1	908	447.773143134087	1.103135579381
1	912	448.676982378808	0.635859972274
1	916	449.588256086041	0.061577284802
1	922	458.347814018117	0.536669241523
1	926	458.885342257364	0.695203605541
1	928	459.478833764781	0.923536494882
1	932	462.66733505125	0.024128573529
1	936	463.481244805973	0.320194782631
1	942	466.966099206717	3.003991541382
1	948	469.111738417223	4.384994852951
1	950	470.205729193983	2.844799186661
1	952	471.628231642505	3.695632431479
1	956	474.152341625875	0.569147179839
1	962	477.782257540882	2.772655600888
1	964	478.139877325794	1.244474746335
1	970	479.714345063598	0.899472596393
1	972	480.599704689934	1.098787727831
1	976	484.453805058616	0.581165799607
1	980	488.203238644414	0.288173145291
1	984	488.995285522692	0.401197386736
1	988	493.823958986998	1.029793383346
1	992	496.314115599577	0.334105265975
1	998	502.534414415664	0.42494723466
1	1002	502.971529069388	0.634578947496
1	1004	503.364284096709	0.653608337721
1	1008	507.663265893801	1.763347954503
1	1012	513.392179629832	0.789185354368
1	1016	513.752134981672	0.018540719289
1	1020	517.176884788569	1.353163803613
1	1024	517.883564907109	0.697496192601
1	1030	523.906581847989	1.509109570983
1	1032	524.588914981644	1.33202639622
1	1036	528.237140015123	0.372278548934
1	1040	531.105443008125	1.828143872586
1	1044	537.549993308918	0.190367871089
1	1050	539.557276352675	0.326113266871
1	1052	540.219211491871	0.769532915475
1	1056	547.409459669799	1.965193136799
1	1060	548.91897214595	0.122407235664
1	1064	555.334209144057	0.413530240233
1	1068	559.018059972799	0.759800313597
1	1072	569.515780892382	1.134289914297
1	1076	570.275936275889	0.111148413262
1	1080	573.338247492842	1.407655432457
1	1088	579.920961620708	0.814007425187
1	1090	580.301474420302	0.798119844977
1	1092	580.780915189495	1.023452484732
1	1098	581.591359396866	0.377821422738
1	1102	583.803232277081	2.53299563447
1	1104	588.882649755523	5.850376162475
1	1108	590.666524494225	0.192632374936
1	1114	594.661419027855	0.237624363138
1	1116	595.761134207848	1.215186480073
1	1120	597.818619444652	1.446311501164
1	1126	600.029493614288	1.73141238981
1	1128	600.389668292381	1.783864327433
1	1132	601.205137453035	0.234584120158
1	1136	609.338753205473	0.075337148743
1	1142	615.603622869736	0.472137522191
1	1144	616.430266561507	1.144680044795
1	1150	621.015313565029	2.060041738174
1	1152	621.048916283278	1.459012176578
1	1156	621.673674900823	0.093931974203
1	1160	624.371046936487	1.058848803834
1	1164	626.013880219006	1.112673867534
1	1168	627.534043322737	0.132539305254
1	1172	628.144153089486	0.101330539969
1	1176	631.562501235199	0.028375107777
1	1182	635.733667481328	1.046211708739
1	1184	636.06197265896	1.004910211112
1	1188	636.945536116476	0.275744215296
1	1192	638.710045733917	1.092279348794
1	1196	638.995179805569	0.128970909519
1	1200	645.861193927548	0.768761758697
1	1204	647.853319535018	0.095327503392
1	1208	648.894893455122	0.068010578924
1	1214	652.130303901025	1.104227548433
1	1218	653.698669331246	2.061752231262
1	1220	654.319361480063	0.985815024618
1	1224	656.991860476083	0.514408806673
1	1230	658.681720925986	1.209148831472
1	1232	658.760808908746	0.683244267734
1	1236	661.829469108725	0.32612201076
1	1242	671.616621348884	2.356697124664
1	1250	674.591684912042	4.760791027891
1	1252	674.594753738594	1.180621917244
1	1256	675.423156322304	1.067667478012
1	1258	675.723031263766	1.289237117869
1	1260	676.324289149925	1.272851187399
1	1264	679.409769981981	1.437294867813
1	1268	680.661853880002	1.029972057403
1	1272	681.983318557627	0.594146346136
1	1280	683.651963732483	1.237808724674
1	1282	684.494873420525	1.832713667676
1	1284	684.510714280611	1.59953044552
1	1288	685.394115712338	0.627585145559
1	1292	688.775779412902	2.137110052858
1	1300	691.172341984761	1.515421493744
1	1302	691.606370603855	1.65472997789
1	1304	692.578117827504	1.930814214529
1	1312	694.471461819892	1.696153109127
1	1320	699.101638039817	6.264304885929
1	1322	699.251172030806	5.160547726944
1	1326	700.971294480315	6.191904408489
1	1328	701.359001227431	5.577513544885
1	1330	701.420623050603	3.044047510364
1	1332	701.60512071195	1.236490094668
1	1336	704.683951446561	0.317806328696
1	1342	706.847108701669	0.577992224969
1	1344	706.950762870869	0.122859092544
1	1350	711.428559839126	0.989763731276
1	1354	713.696550531346	2.85757669022
1	1358	714.115401542092	1.467518993173
1	1360	717.247616733752	3.296814046176
1	1364	718.727069672974	0.544086186875
1	1370	721.069572444226	0.767318706896
1	1376	724.830200937832	4.216778142588
1	1378	725.157979045384	1.312865546067
1	1380	725.86220593406	1.754185769095
1	1386	727.988694570375	1.404694662544
1	1388	728.629832644532	0.968965580204
1	1396	730.957310389793	1.27860289664
1	1398	730.998990122573	0.990654263599
1	1400	731.07900300495	0.125931241734
1	1404	732.370212868727	0.914186009381
1	1408	737.766482401348	0.741673854529
1	1412	739.439636194464	0.617457574389
1	1416	745.19006055805	0.12497091441
1	1422	748.918270483013	2.726376588957
1	1424	749.036759515313	0.914109148347
1	1428	752.699648970654	3.425437550567
1	1432	757.752048845415	0.382900273667
1	1436	758.209374978611	0.331048906576
1	1442	764.152401862303	2.813231091479
1	1446	767.386230510219	4.428058113449
1	1450	768.592410429403	3.384394822738
1	1454	771.698739987723	3.23108832366
1	1456	771.891085299141	0.934507319698
1	1464	777.508130399692	1.942407926781
1	1466	777.783705058141	1.54076287648
1	1468	778.134056103662	0.867174851857
1	1472	780.100003212577	0.907411785115
1	1476	783.382263087083	0.11573800692
1	1482	790.418621273861	1.570168145494
1	1488	791.445500958245	2.447550830976
1	1492	792.046800692815	0.870119487713
1	1500	794.854664883074	3.430294555157
1	1504	796.004597926847	4.353798896435
1	1506	796.0667759817	3.919928967661
1	1508	796.419970867795	3.583232017311
1	1512	796.934256064786	2.29142991175
1	1514	797.36569899211	1.439046342022
1	1516	797.524677875726	1.073668653863
1	1522	799.454286392963	1.399660646022
1	1524	800.05315730611	1.667946364608
1	1528	800.746405359527	0.522732183224
1	1532	802.464700846912	0.852095507842
1	1536	803.405380634279	0.171600471075
1	1542	807.745071110136	2.221246327503
1	1544	807.867418806273	0.375496113376
1	1548	808.894212002536	0.792125003056
1	1558	814.728947750529	3.350843156513
1	1564	815.928962785133	4.489164859216
1	1566	815.979985951633	4.466888807803
1	1568	821.459416826489	9.646553850448
1	1570	821.556659832988	6.736104774972
1	1572	821.983967582829	6.524328593678
1	1576	823.83597562395	0.982866898865
1	1582	827.04805772282	2.853815519115
1	1586	828.027655467403	1.982257131534
1	1590	830.089805342696	2.299534591598
1	1598	831.285729054529	1.286251924303
1	1600	831.709655222151	1.220504440874
1	1602	832.310045758603	1.38679306718
1	1606	834.552733531058	3.554283413984
1	1608	835.185351267171	2.657356823301
1	1614	838.66262730697	0.569108061491
1	1616	839.026355872607	0.64407202529
1	1620	842.05248457488	0.174039729655
1	1626	843.930092627612	1.105254110434
1	1628	844.433183196556	0.640232903086
1	1634	848.002757661579	2.137968173225
1	1636	848.046908274911	1.183899766376
1	1642	855.077301231506	2.07424968898
1	1646	855.174218955087	1.938711721041
1	1648	856.908756035007	1.800631822962
1	1652	858.368077446047	0.612535522314
1	1656	861.015781027974	1.347746705691
1	1660	862.230503391888	0.599452543517
1	1664	864.448008887297	0.172611797368
1	1672	867.841166390508	2.960165620648
1	1678	869.50669677095	3.770024600527
1	1680	870.414310879784	4.553437245471
1	1682	871.307526373794	3.389535955997
1	1684	871.542779850895	3.141112590102
1	1688	872.339366616319	0.514059056368
1	1692	873.664905014106	0.904423870753
1	1696	876.007035390456	0.942296005269
1	1700	886.780971704746	0.114219252937
1	1706	889.472256075242	0.213895091823
1	1710	890.085202935494	0.759194116264
1	1712	890.811198775344	0.993785283566
1	1716	896.3090764139	1.946620355842
1	1722	898.522388042317	0.859749678803
1	1726	900.191143120782	2.105294940741
1	1728	900.65271392456	1.70804128818
1	1732	901.158732260573	0.207917182216
1	1736	904.051846207958	0.328075684104
1	1740	904.103493272768	0.025291695378
1	1744	905.11483395881	0.452762774878
1	1748	906.322105721628	1.009229754283
1	1752	909.600876336895	1.844984188096
1	1756	914.050364823665	0.267609346787
1	1760	917.871258352253	1.223382332351
1	1766	919.567206849256	1.396100463241
1	1770	920.742329758007	1.588612224448
1	1776	924.049452982191	4.34166854535
1	1778	924.303954450847	1.910739629084
1	1780	924.890143286858	1.549968632605
1	1784	925.844211369179	0.769593704986
1	1788	926.142947114301	0.004773205945
1	1792	928.188994603099	0.006745442587
1	1796	935.285934385658	0.680429895848
1	1800	938.735324645887	0.472555675533
1	1804	942.634877588274	0.145003932247
1	1808	952.674519618129	0.437400795263
1	1812	953.807307291869	1.025700146721
1	1816	956.93730811346	0.739788726318
1	1820	961.445381028787	0.504854748877
1	1830	964.916651507451	1.469868493047
1	1832	967.089440451751	3.008898885136
1	1836	969.400500330527	4.943298282592
1	1844	972.915656212317	8.348794063923
1	1846	973.286245389215	5.743934386192
1	1852	976.087117025033	6.271352874387
1	1854	976.898499336917	5.995048898009
1	1860	978.00215527606	5.822590873558
1	1862	978.811723593755	4.278589899562
1	1868	981.284882564294	6.116060598495
1	1870	981.429830666799	4.133521232918
1	1872	981.757450294866	4.452657828918
1	1874	982.0444407053	2.317672482878