version 3
run General-20-20221028-09:56:52-16128
attr configname General
attr datetime 20221028-09:56:52
attr datetimef 20221028-095652
attr experiment General
attr inifile simu_1.ini
attr iterationvars ""
attr iterationvarsd ""
attr iterationvarsf ""
attr measurement ""
attr network Rete
attr processid 16128
attr repetition 20
attr replication #20
attr resultdir results
attr runnumber 20
attr seedset 20
config network Rete
config record-eventlog false
config repeat 30
config sim-time-limit 1000s
config simtime-resolution ps
config **.Servente.serviceTime exponential(1s)
config **.Arrivi.interArrivalTime exponential(2s)

vector 0 Rete.Servente queueLength:vector ETV
attr interpolationmode sample-hold
attr recordingmode vector
attr title "queue length"
vector 1 Rete.Pozzo lifeTime:vector ETV
attr interpolationmode none
attr recordingmode vector
attr title "lifetime of arrived jobs"
attr unit s
0	0	0	0
0	32	30.719860585341	1
0	33	31.708573303887	0
0	52	44.803588915338	1
0	53	45.405064744365	0
0	68	54.327703688735	1
0	69	55.71639018299	0
0	80	57.963295334858	1
0	82	58.588334550627	2
0	83	59.277540630044	1
0	85	63.629184661635	0
0	96	70.290352752095	1
0	97	71.352179879514	0
0	100	71.498589761755	1
0	101	72.030204066534	0
0	104	72.684624594394	1
0	105	73.027848757543	0
0	108	73.267935422275	1
0	109	74.857297154179	0
0	116	78.095784396154	1
0	117	78.103043508268	0
0	120	78.865521601977	1
0	121	79.240639224698	0
0	148	92.138141909562	1
0	149	92.666262676219	0
0	164	97.52838945427	1
0	166	97.62896052756	2
0	167	97.899107906807	1
0	170	98.396112080902	2
0	171	99.020093609827	1
0	173	99.040113006206	0
0	188	105.799652203098	1
0	189	106.011222763658	0
0	192	106.597095378944	1
0	194	107.221411531682	2
0	196	107.561545556987	3
0	197	107.758909335181	2
0	200	107.85519545021	3
0	202	108.785482309263	4
0	203	109.084298721267	3
0	205	109.100165784146	2
0	208	109.836154542547	3
0	209	110.608347159287	2
0	212	110.681562651287	3
0	213	112.237837612192	2
0	215	113.779950807066	1
0	217	113.997925519622	0
0	228	124.360394097817	1
0	230	124.883504709949	2
0	231	125.225450718975	1
0	233	125.40036940506	0
0	236	125.992490261179	1
0	237	126.121028252813	0
0	284	155.746206072231	1
0	285	157.74451931343	0
0	288	159.226703491226	1
0	290	159.324941841449	2
0	291	159.963108355862	1
0	293	161.22266847519	0
0	300	163.755333962108	1
0	301	164.756345373194	0
0	308	170.971239151219	1
0	309	171.610539706862	0
0	316	174.992342675381	1
0	317	175.2275587921	0
0	344	189.237371917469	1
0	345	190.905707721717	0
0	384	226.524156414303	1
0	386	227.759510492416	2
0	387	228.116470028844	1
0	389	228.310649248837	0
0	392	229.500437680085	1
0	393	229.794584602095	0
0	400	231.903455250964	1
0	401	232.499862431804	0
0	420	245.427626660152	1
0	422	245.961203704727	2
0	424	246.897450689804	3
0	425	247.122654751369	2
0	427	247.587202846739	1
0	430	247.722909768924	2
0	431	248.084282634985	1
0	434	248.798423015388	2
0	435	249.70060690379	1
0	437	249.754452376029	0
0	440	249.903609690869	1
0	442	250.142420113988	2
0	444	250.563308977825	3
0	445	250.841545796689	2
0	447	252.123403210346	1
0	449	252.207672129365	0
0	452	252.229598604739	1
0	453	252.500247451498	0
0	456	253.481369602591	1
0	458	255.742259844182	2
0	459	255.788316340194	1
0	461	255.795865763879	0
0	464	256.026911169268	1
0	465	257.43987800551	0
0	480	272.630036665083	1
0	482	273.723000508889	2
0	484	273.742278659392	3
0	485	274.379477976577	2
0	487	274.650726998004	1
0	489	275.020274893013	0
0	500	282.443922953406	1
0	502	283.217065997512	2
0	503	284.401760243907	1
0	505	284.447644529816	0
0	524	295.681830695695	1
0	525	296.71828490578	0
0	528	297.337516100334	1
0	529	298.045302409265	0
0	532	298.341066433131	1
0	533	298.530168789109	0
0	536	299.884945371429	1
0	538	300.582617940451	2
0	539	301.437815393901	1
0	541	302.14350723991	0
0	552	306.388756041425	1
0	553	307.667448177498	0
0	564	316.317322993367	1
0	566	316.714023207463	2
0	567	318.368499186071	1
0	570	319.844530467612	2
0	571	320.404571452258	1
0	574	322.514876695786	2
0	575	324.146775754851	1
0	577	325.222293184221	0
0	584	326.597707567051	1
0	585	326.652027637435	0
0	588	327.116381557862	1
0	589	328.010454974976	0
0	604	337.070865001235	1
0	605	337.293752719591	0
0	612	338.742448087041	1
0	613	339.58885382794	0
0	616	339.694712312128	1
0	617	340.922445804294	0
0	620	340.993549883518	1
0	621	344.449365962146	0
0	628	348.558037687786	1
0	629	349.09976198131	0
0	648	365.836256426562	1
0	649	366.670101303792	0
0	660	373.256187313355	1
0	661	373.276479755862	0
0	664	373.448229982892	1
0	666	373.953166047539	2
0	667	374.322652791033	1
0	669	376.975764508742	0
0	676	381.9322291204	1
0	677	381.972102732028	0
0	680	382.019606852675	1
0	681	382.344766702604	0
0	688	387.378758139457	1
0	690	387.831755023466	2
0	691	388.896783903055	1
0	693	389.063129382092	0
0	696	389.284925879683	1
0	697	389.603427631172	0
0	716	400.978883652158	1
0	717	402.192261076766	0
0	720	402.276224281652	1
0	721	402.953240272885	0
0	740	418.418615419394	1
0	741	419.573844371696	0
0	748	424.642554635943	1
0	749	424.805492778574	0
0	768	439.563984096507	1
0	769	439.611175563793	0
0	780	449.682878348685	1
0	782	449.980847968905	2
0	783	450.224438408464	1
0	785	452.66665739285	0
0	796	455.947540794692	1
0	798	456.072110200176	2
0	800	457.085270570423	3
0	801	458.289110524818	2
0	804	458.32981467395	3
0	805	458.989362232234	2
0	807	459.643388285334	1
0	810	461.357346624241	2
0	811	461.498040872992	1
0	813	462.032138490618	0
0	824	464.091265133349	1
0	825	464.114469314168	0
0	828	465.445121765456	1
0	830	465.651084883047	2
0	831	465.891646868834	1
0	834	466.382337044201	2
0	835	467.234285857574	1
0	838	468.282517033221	2
0	839	469.380308209845	1
0	841	469.447102132609	0
0	844	469.895379541027	1
0	846	470.502357994142	2
0	847	470.994237305084	1
0	849	471.0116918863	0
0	860	476.158931303587	1
0	861	477.579022232445	0
0	864	478.417159112431	1
0	866	478.460831746524	2
0	868	478.960626178953	3
0	870	479.947540863955	4
0	871	480.611036207553	3
0	873	481.808892735173	2
0	875	482.345316145823	1
0	877	482.528086906518	0
0	880	482.93061106175	1
0	881	483.151102295125	0
0	884	483.838478569799	1
0	886	484.238687962751	2
0	887	484.294911841164	1
0	889	485.57465333452	0
0	896	490.326778530871	1
0	898	491.052326339761	2
0	899	492.81312923186	1
0	902	493.060404935117	2
0	904	493.198271123262	3
0	905	493.436856377891	2
0	907	495.487970498343	1
0	909	497.126172717865	0
0	916	498.614631111864	1
0	917	499.222484509508	0
0	920	499.675417459992	1
0	921	501.601946796364	0
0	928	503.647249577916	1
0	929	505.493629625962	0
0	932	507.314291068622	1
0	934	509.203714904902	2
0	935	511.239189036332	1
0	937	512.103488874689	0
0	972	543.547104812827	1
0	974	543.700342264634	2
0	976	543.940040672899	3
0	977	545.527624084008	2
0	979	546.016204829904	1
0	981	546.06339602689	0
0	1000	555.455672946442	1
0	1002	556.671515733658	2
0	1003	556.909081532979	1
0	1006	557.221145801363	2
0	1008	557.251081801559	3
0	1010	557.97987525686	4
0	1012	559.090461070304	5
0	1014	559.109350102386	6
0	1015	559.442690538295	5
0	1018	561.051740355519	6
0	1019	561.424367927534	5
0	1021	561.645024529824	4
0	1024	561.947690035495	5
0	1026	562.642237643432	6
0	1028	562.971918277256	7
0	1029	564.838093065822	6
0	1031	567.863087538833	5
0	1033	568.99660345239	4
0	1036	569.423659062575	5
0	1037	569.647808289449	4
0	1040	570.154668048443	5
0	1042	570.687195130362	6
0	1043	571.295115056441	5
0	1046	572.691622191018	6
0	1047	572.968230139347	5
0	1050	573.086874618266	6
0	1052	573.162609581312	7
0	1054	576.877845303586	8
0	1055	577.609867913967	7
0	1057	579.031661499279	6
0	1059	581.240564407294	5
0	1062	582.738358283933	6
0	1063	583.198157428038	5
0	1065	584.342800376557	4
0	1067	584.956667159664	3
0	1070	585.364701218382	4
0	1072	586.454141160858	5
0	1073	587.614184895986	4
0	1076	589.16427069907	5
0	1077	589.441856437527	4
0	1079	590.10311158962	3
0	1081	590.452592981176	2
0	1083	590.967536155892	1
0	1086	591.519012023799	2
0	1087	592.03315664177	1
0	1090	592.476298117178	2
0	1091	592.533328673242	1
0	1093	594.84302230336	0
0	1112	608.159399139169	1
0	1114	608.360243564627	2
0	1116	609.29258350523	3
0	1117	609.631291636383	2
0	1119	609.863079087797	1
0	1121	610.77520794274	0
0	1124	610.88410088841	1
0	1125	611.449690068962	0
0	1152	631.2068032275	1
0	1154	631.332999825647	2
0	1156	631.612591526685	3
0	1157	631.743226135057	2
0	1160	632.385228383155	3
0	1161	633.428972309242	2
0	1163	633.668283414607	1
0	1165	633.825894461132	0
0	1188	656.479689021513	1
0	1189	658.742094051409	0
0	1192	658.770879354784	1
0	1194	659.123006848394	2
0	1196	661.146738512434	3
0	1198	661.559317500485	4
0	1199	662.879376361105	3
0	1202	664.355303488476	4
0	1203	665.584759232974	3
0	1205	668.17027747365	2
0	1207	669.9135993728	1
0	1210	670.908554176779	2
0	1211	670.93157724624	1
0	1213	671.298525196763	0
0	1216	671.406095697863	1
0	1217	671.570476771419	0
0	1224	676.010258584713	1
0	1226	676.128512408972	2
0	1227	678.152367904764	1
0	1230	678.165273183745	2
0	1231	678.518957760249	1
0	1233	679.245678542035	0
0	1260	694.788334802425	1
0	1261	695.106109328872	0
0	1264	695.718199793705	1
0	1265	698.316151637311	0
0	1268	699.609526291511	1
0	1269	700.711751607996	0
0	1272	701.40639791876	1
0	1273	701.590061429046	0
0	1276	702.109116816519	1
0	1277	703.258746363651	0
0	1284	704.563012208258	1
0	1286	704.800034543753	2
0	1288	704.975997650877	3
0	1289	705.828039537856	2
0	1291	706.022046327803	1
0	1293	706.345879751157	0
0	1296	707.628248927227	1
0	1297	709.002088110343	0
0	1328	740.488578180473	1
0	1329	740.688534132209	0
0	1396	782.762414552098	1
0	1397	783.244706085903	0
0	1404	787.569805912983	1
0	1405	787.791975238765	0
0	1416	791.569785227944	1
0	1417	792.108991816565	0
0	1428	793.099434487033	1
0	1430	794.660675991498	2
0	1431	796.109954898608	1
0	1433	797.29823680776	0
0	1452	807.142612679223	1
0	1454	807.839307686344	2
0	1455	809.103503977723	1
0	1457	809.19904828455	0
0	1464	815.089480675663	1
0	1465	815.304079985065	0
0	1468	815.514082694949	1
0	1469	817.405602084169	0
0	1472	817.7718683842	1
0	1473	819.169026040534	0
0	1484	822.999722520395	1
0	1485	823.075937930218	0
0	1488	823.765510455158	1
0	1489	825.905054887056	0
0	1512	836.678518741658	1
0	1513	836.752855927869	0
0	1520	837.898164136496	1
0	1521	838.163594102727	0
0	1552	857.509302916893	1
0	1554	862.181289071065	2
0	1556	864.238681289684	3
0	1557	864.57499541015	2
0	1559	864.582042060049	1
0	1561	865.377313187937	0
0	1564	865.832664785414	1
0	1566	866.014752697178	2
0	1567	866.753180761278	1
0	1569	866.769049208711	0
0	1580	869.289161711427	1
0	1582	869.350753306079	2
0	1584	869.790721874591	3
0	1585	871.575639359	2
0	1587	871.671206313118	1
0	1589	873.252982270459	0
0	1608	888.174236472418	1
0	1610	888.183562376962	2
0	1611	888.753532290545	1
0	1613	888.794260805302	0
0	1624	894.403990484973	1
0	1626	895.226423826626	2
0	1627	895.467031663798	1
0	1629	895.698964142979	0
0	1640	903.523717346906	1
0	1641	904.078863326532	0
0	1648	908.859976296815	1
0	1649	909.147667969546	0
0	1652	909.775159540406	1
0	1653	910.292061895757	0
0	1672	923.445841340473	1
0	1674	924.974702386188	2
0	1676	925.031370992027	3
0	1677	925.045868994621	2
0	1680	925.363435306359	3
0	1681	926.014951663715	2
0	1683	927.07147827406	1
0	1686	927.458840266707	2
0	1687	928.247864791442	1
0	1690	929.61183032244	2
0	1691	930.573005269319	1
0	1693	931.019690238035	0
0	1704	934.771141844636	1
0	1706	935.357032798332	2
0	1707	935.467938620919	1
0	1709	937.847658514518	0
0	1712	938.546614496614	1
0	1713	938.566244112215	0
0	1716	939.027593891839	1
0	1718	939.959598264917	2
0	1719	940.614206927777	1
0	1721	940.983222134908	0
0	1724	940.99832908576	1
0	1726	942.060314483259	2
0	1727	942.842445083013	1
0	1729	942.871802815364	0
0	1740	950.904225794993	1
0	1742	951.965343584504	2
0	1743	953.11534193164	1
0	1745	953.649577854422	0
0	1756	959.302417291551	1
0	1758	959.425973113938	2
0	1760	959.509921099489	3
0	1762	960.243933811488	4
0	1763	960.700297716551	3
0	1766	961.097593448836	4
0	1768	961.742565883238	5
0	1769	962.492726229067	4
0	1772	962.819555189222	5
0	1774	964.495315788969	6
0	1776	965.007550157257	7
0	1778	965.648706785814	8
0	1780	966.304279408158	9
0	1782	968.611755770669	10
0	1784	969.490234816062	11
0	1785	970.504540611552	10
0	1787	970.589251409461	9
0	1790	974.755720371607	10
0	1791	976.018306218423	9
0	1794	976.357462074649	10
0	1796	976.502728360224	11
0	1797	976.944712161114	10
0	1799	977.892952741277	9
0	1802	980.773730025873	10
0	1804	980.915701134483	11
0	1806	981.829358558294	12
0	1807	982.825596006301	11
0	1809	983.237236144175	10
0	1812	985.825065868792	11
0	1814	986.159498544721	12
0	1815	986.400816492649	11
0	1817	986.438889561019	10
0	1820	987.118278623596	11
0	1821	987.367009797362	10
0	1823	987.882660343902	9
0	1825	988.339507395619	8
0	1827	990.002675354049	7
0	1829	991.676227766889	6
0	1831	991.780699787772	5
0	1833	992.914005785594	4
0	1836	994.886983949084	5
0	1838	995.904058657703	6
0	1839	996.267579235468	5
0	1841	997.080250898182	4
0	1843	997.841450106466	3
0	1845	998.128188061859	2
0	1847	999.150555638193	1
0	1849	999.531578016492	0
0	1852	999.97976187721	1
1	4	4.054078660367	2.279979772316
1	8	8.363422286874	2.221288361773
1	12	14.01030407032	1.691936621965
1	16	18.439640327702	0.036549450897
1	20	21.52297937227	1.17686871569
1	24	22.867299848237	0.475910539931
1	28	29.131873736148	0.730871783213
1	34	31.708573303887	1.072802637784
1	36	31.924059023987	1.204198438646
1	40	34.722686617647	0.31788894059
1	44	39.06446999156	1.267999206023
1	48	42.375563161626	1.52787457483
1	54	45.405064744365	1.899306609921
1	56	46.897808628444	2.094219713106
1	60	48.863795169008	0.037353336946
1	64	49.708729146055	0.124083294256
1	70	55.71639018299	1.391430320516
1	72	55.989798897818	1.662095209083
1	76	56.335453762041	0.294110708744
1	84	59.277540630044	1.949294591945
1	86	63.629184661635	5.665889326777
1	88	64.454006347114	5.865671796487
1	92	64.767944319228	0.196964874844
1	98	71.352179879514	1.470771927306
1	102	72.030204066534	1.739851314439
1	106	73.027848757543	1.529258995788
1	110	74.857297154179	2.172672559785
1	112	75.475409959726	2.207474537451
1	118	78.103043508268	0.689035790894
1	122	79.240639224698	1.144854828544
1	124	80.292709343061	1.427187741084
1	128	80.894335712032	0.313061747068
1	132	83.951872039548	0.069698119231
1	136	85.910937737484	1.475978991643
1	140	88.69332893949	0.655820830251
1	144	91.18657681489	0.399293808796
1	150	92.666262676219	0.71465903029
1	152	92.972283654904	0.834141745342
1	156	93.476852158018	0.37180533509
1	160	95.173586466959	0.985784015392
1	168	97.899107906807	0.81520140244
1	172	99.020093609827	1.491704155557
1	174	99.040113006206	1.411152478646
1	176	99.338484787205	0.942372706303
1	180	100.273498367829	0.872850853447
1	184	102.761769726213	0.17629421187
1	190	106.011222763658	0.911636132784
1	198	107.758909335181	1.959257132083
1	204	109.084298721267	2.487203342323
1	206	109.100165784146	1.878754252464
1	210	110.608347159287	3.0468016023
1	214	112.237837612192	4.382642161982
1	216	113.779950807066	4.994468497803
1	218	113.997925519622	4.161770977075
1	220	114.895117333451	4.213554682164
1	224	118.401134701761	1.092101154157
1	232	125.225450718975	1.040062163914
1	234	125.40036940506	1.039975307243
1	238	126.121028252813	1.237523542864
1	240	126.816694281303	0.824204020124
1	244	131.340531006983	0.037788897661
1	248	137.734874904029	1.231399152719
1	252	141.228172993606	0.96871782885
1	256	142.979425663312	1.504215813463
1	260	143.655586311718	0.615093158506
1	264	144.335161706374	0.477722227431
1	268	146.616903623321	0.34515894687
1	272	149.096436080269	0.814702252171
1	276	149.331841948157	0.087917533766
1	280	154.827481013864	0.997722264047
1	286	157.74451931343	2.892643066027
1	292	159.963108355862	4.216902283631
1	294	161.22266847519	1.995964983964
1	296	161.645409403448	2.320467561999
1	302	164.756345373194	1.214361687698
1	304	165.505719273423	1.750385311315
1	310	171.610539706862	1.076802717036
1	312	171.922911592073	0.951672440854
1	318	175.2275587921	0.935899421181
1	320	175.276914354036	0.284571678655
1	324	177.790561229828	1.189086279765
1	328	180.076669595953	0.35563531404
1	332	181.979490468019	0.181084986048
1	336	183.48206793806	0.403844329718
1	340	187.128636858721	0.180847935348
1	346	190.905707721717	2.460854022028
1	348	191.239817748843	2.002445831374
1	352	192.145029185449	0.113848958472
1	356	201.325748200679	0.124432080873
1	360	204.458652030836	1.408636476952
1	364	207.837898863249	1.825695579863
1	368	210.301431701492	0.036183834614
1	372	210.868293871284	0.129475360093
1	376	220.752057841683	2.216481284259
1	380	223.226345457426	0.72379658583
1	388	228.116470028844	2.582550520178
1	390	228.310649248837	1.786492834534
1	394	229.794584602095	2.035074109679
1	396	230.343937802213	0.843500122128
1	402	232.499862431804	1.745628541003
1	404	232.986653482877	1.083198231913
1	408	233.568717099887	0.437491457323
1	412	235.710627647988	0.558753573205
1	416	243.421729855063	0.502634570418
1	426	247.122654751369	1.861944078314
1	428	247.587202846739	2.159576186587
1	432	248.084282634985	2.123078930258
1	436	249.70060690379	2.803156213986
1	438	249.754452376029	2.031542607105
1	446	250.841545796689	2.043122781301
1	448	252.123403210346	2.219793519477
1	450	252.207672129365	2.065252015377
1	454	252.500247451498	1.936938473673
1	460	255.788316340194	3.558717735455
1	462	255.795865763879	2.314496161288
1	466	257.43987800551	1.697618161328
1	468	257.878375909134	1.851464739866
1	472	258.385479425713	0.088435989112
1	476	262.849865689738	1.313671491442
1	486	274.379477976577	5.684231802293
1	488	274.650726998004	2.020690332921
1	490	275.020274893013	1.297274384124
1	492	275.640031809941	1.897753150549
1	496	279.79217812439	1.449271799071
1	504	284.401760243907	3.593689757794
1	506	284.447644529816	2.00372157641
1	508	285.333034597543	2.115968600031
1	512	288.757343664483	0.587662262659
1	516	289.390188889683	0.581741657559
1	520	294.95675976125	1.184141987096
1	526	296.71828490578	1.296969239986
1	530	298.045302409265	2.36347171357
1	534	298.530168789109	1.192652688775
1	540	301.437815393901	3.09674896077
1	542	302.14350723991	2.258561868481
1	544	302.4416635269	1.859045586449
1	548	304.751107751036	1.011940055058
1	554	307.667448177498	1.865237166042
1	556	307.67525370806	1.286497666635
1	560	310.78877592855	0.08016534298
1	568	318.368499186071	4.549275613682
1	572	320.404571452258	4.087248458891
1	576	324.146775754851	7.432752547388
1	578	325.222293184221	5.377762716609
1	580	325.484637816741	2.969761120955
1	586	326.652027637435	0.111492889221
1	590	328.010454974976	1.412747407925
1	592	328.655109822737	1.538728264875
1	596	333.426080253378	1.425670870673
1	600	336.287452720009	0.665518659893
1	606	337.293752719591	0.322872436671
1	608	337.774669063923	0.703804062688
1	614	339.58885382794	1.127633553848
1	618	340.922445804294	2.179997717253
1	622	344.449365962146	4.754653650018
1	624	345.593067849448	4.59951796593
1	630	349.09976198131	0.674231206921
1	632	349.237190375198	0.679152687412
1	636	357.228444666124	0.700838536804
1	640	358.148540936318	0.527072061038
1	644	365.053686404717	0.295173229276
1	650	366.670101303792	0.96250752737
1	652	368.9240337986	3.087777372038
1	656	370.129523679971	1.101122623652
1	662	373.276479755862	0.857676027079
1	668	374.322652791033	1.066465477678
1	670	376.975764508742	3.52753452585
1	672	378.973583663864	5.020417616325
1	678	381.972102732028	1.526608856186
1	682	382.344766702604	0.412537582204
1	684	382.662102616524	0.642495763849
1	692	388.896783903055	3.155444425604
1	694	389.063129382092	1.684371242635
1	698	389.603427631172	1.771672607706
1	700	390.621925704481	1.336999824798
1	704	394.415989113263	1.169659493761
1	708	396.692703799404	1.463117070785
1	712	398.913116058567	0.584929011399
1	718	402.192261076766	3.022373825462
1	722	402.953240272885	1.974356620727
1	724	403.32947873854	1.053254456888
1	728	405.596351228796	0.227555848608
1	732	414.135885376111	4.223152068885
1	736	416.89906495859	0.630809602516
1	742	419.573844371696	1.213784853404
1	744	419.741794595442	1.323179176048
1	750	424.805492778574	1.313041619221
1	752	425.886027565966	1.243472930023
1	756	429.430737231865	1.33343124865
1	760	435.562335384226	2.371820358815
1	764	438.755681633113	1.576565740247
1	770	439.611175563793	0.502476785197
1	772	442.164220480989	2.600236384482
1	776	445.604039462095	0.04180718889
1	784	450.224438408464	1.581541240073
1	786	452.66665739285	2.983779044165
1	788	453.447383434324	3.466535465419
1	792	454.616074591129	0.995258729179
1	802	458.289110524818	3.592984681658
1	806	458.989362232234	3.041821437542
1	808	459.643388285334	3.571278085158
1	812	461.498040872992	4.412770302569
1	814	462.032138490618	3.702323816668
1	816	462.049944241416	0.692597617175
1	820	463.898253313841	0.065718134891
1	826	464.114469314168	0.124400004486
1	832	465.891646868834	1.800381735485
1	836	467.234285857574	1.789164092118
1	840	469.380308209845	3.729223326798
1	842	469.447102132609	3.064765088408
1	848	470.994237305084	2.711720271863
1	850	471.0116918863	1.116312345273
1	852	472.722125235549	2.219767241407
1	856	474.042662623208	0.058142124048
1	862	477.579022232445	2.210324777876
1	872	480.611036207553	4.452104903966
1	874	481.808892735173	3.391733622742
1	876	482.345316145823	3.884484399299
1	878	482.528086906518	3.567460727565
1	882	483.151102295125	3.20356143117
1	888	484.294911841164	1.364300779414
1	890	485.57465333452	1.736174764721
1	892	487.523527809242	3.284839846491
1	900	492.81312923186	3.174918847639
1	906	493.436856377891	3.11007784702
1	908	495.487970498343	4.435644158582
1	910	497.126172717865	4.065767782748
1	912	497.573821441899	4.375550318637
1	918	499.222484509508	1.020164862159
1	922	501.601946796364	2.9873156845
1	924	502.309293084388	2.633875624396
1	930	505.493629625962	1.960747263322
1	936	511.239189036332	7.591939458416
1	938	512.103488874689	4.789197806067
1	940	512.455067414192	3.25135250929
1	944	522.456596720923	0.29163615998
1	948	523.490199957288	0.245615309021
1	952	524.30514688257	0.628411235557
1	956	528.84811791805	2.092842512891
1	960	533.974427674595	0.577162501188
1	964	535.154240424096	0.243019568364
1	968	538.440436125066	0.679991473834
1	978	545.527624084008	2.590734799323
1	980	546.016204829904	2.469100017077
1	982	546.06339602689	2.363053762256
1	984	546.572135529565	2.632094856666
1	988	547.551243335108	0.368105874596
1	992	548.179722591525	0.056531338634
1	996	551.082882820483	0.23764803009
1	1004	556.909081532979	2.763877580207
1	1016	559.442690538295	3.987017591853
1	1020	561.424367927534	4.752852193876
1	1022	561.645024529824	4.423878728461
1	1030	564.838093065822	7.587011264263
1	1032	567.863087538833	9.883212281973
1	1034	568.99660345239	9.906142382086
1	1038	569.647808289449	10.538458187063
1	1044	571.295115056441	10.243374700922
1	1048	572.968230139347	11.020540103852
1	1056	577.609867913967	14.967630270535
1	1058	579.031661499279	16.059743222023
1	1060	581.240564407294	11.816905344719
1	1064	583.198157428038	13.043489379595
1	1066	584.342800376557	13.655605246195
1	1068	584.956667159664	12.265044968646
1	1074	587.614184895986	14.52731027772
1	1078	589.441856437527	16.279246856215
1	1080	590.10311158962	13.225266286034
1	1082	590.452592981176	7.714234697243
1	1084	590.967536155892	5.60283493751
1	1088	592.03315664177	5.579015480912
1	1092	592.533328673242	3.369057974172
1	1094	594.84302230336	3.324010279561
1	1096	595.901062574345	3.424764457167
1	1100	598.516549094402	0.185533776455
1	1104	603.458988808043	1.344121394969
1	1108	603.938610700638	0.478368269085
1	1118	609.631291636383	1.643885265166
1	1120	609.863079087797	1.703679948628
1	1122	610.77520794274	2.414964378113
1	1126	611.449690068962	2.157106563732
1	1128	611.66327929321	0.7791784048
1	1132	619.026447281339	0.203657175022
1	1136	620.555211028025	0.357748369267
1	1140	623.575808371646	0.896898202146
1	1144	625.655153854903	0.685409496468
1	1148	630.401060581125	2.484730297058
1	1158	631.743226135057	1.040907839099
1	1162	633.428972309242	2.222169081742
1	1164	633.668283414607	2.33528358896
1	1166	633.825894461132	2.213302934447
1	1168	633.868506980932	1.483278597777
1	1172	634.499700976034	0.43018171908
1	1176	640.062721204556	1.195125149846
1	1180	649.036055795107	0.30550660722
1	1184	651.280719731012	0.385422073477
1	1190	658.742094051409	3.167867502762
1	1200	662.879376361105	6.399687339592
1	1204	665.584759232974	6.81387987819
1	1206	668.17027747365	9.047270625256
1	1208	669.9135993728	8.766860860366
1	1212	670.93157724624	9.372259745755
1	1214	671.298525196763	6.943221708287
1	1218	671.570476771419	0.66192259464
1	1220	671.942558518805	0.536462820942
1	1228	678.152367904764	3.937802309889
1	1232	678.518957760249	2.508699175536
1	1234	679.245678542035	3.117166133063
1	1236	679.259465881974	1.094192698229
1	1240	684.326749663544	1.455437002221
1	1244	686.022224355995	0.004407886934
1	1248	686.788220453553	0.044252922831
1	1252	693.388251586399	0.004881202264
1	1256	694.618601449522	0.231868470392
1	1262	695.106109328872	0.399684728557
1	1266	698.316151637311	3.527816834886
1	1270	700.711751607996	4.993551814291
1	1274	701.590061429046	1.980535137535
1	1278	703.258746363651	1.852348444891
1	1280	703.291404197905	1.182287381386
1	1290	705.828039537856	1.410865839706
1	1292	706.022046327803	1.459034119545
1	1294	706.345879751157	1.545845207404
1	1298	709.002088110343	4.026090459466
1	1300	709.303384419113	1.675135491886
1	1304	714.179208311312	1.588814756183
1	1308	717.980493315728	0.754128651294
1	1312	721.184454887808	1.208769594197
1	1316	723.55628428629	1.173158345774
1	1320	724.74372187494	0.646976433122
1	1324	728.781408306684	1.268923726447
1	1330	740.688534132209	0.2972549079
1	1332	741.076944402167	0.588366221694
1	1336	743.700847393555	1.604239507086
1	1340	746.937760618359	0.052052616674
1	1344	749.394680323418	0.306176256664
1	1348	749.969245447632	0.233163989876
1	1352	757.351642109912	0.251625214709
1	1356	759.905660912008	1.084359553314
1	1360	760.519554528006	0.13128688324
1	1364	761.87487278026	0.500656135455
1	1368	762.99968302353	0.948294644057
1	1372	765.006732098796	0.386689817941
1	1376	766.65950179047	0.379407389392
1	1380	769.007404779246	0.932216366758
1	1384	772.512898711146	1.790953730974
1	1388	775.400928909574	0.539326249006
1	1392	778.939936335959	0.049493432415
1	1398	783.244706085903	2.15974720886
1	1400	785.277137741304	2.514723189206
1	1406	787.791975238765	0.458118374918
1	1408	788.799349327775	1.229543414792
1	1412	790.450598969541	0.605329846283
1	1418	792.108991816565	1.244090543604
1	1420	792.247862173698	0.678076945754
1	1424	792.835704361857	0.091468972804
1	1432	796.109954898608	3.139572015743
1	1434	797.29823680776	4.198802320727
1	1436	797.467957763666	2.807281772168
1	1440	799.018352996723	0.165901469005
1	1444	802.875575900496	0.471277302428
1	1448	803.099949634523	0.134447514569
1	1456	809.103503977723	2.078508804633
1	1458	809.19904828455	2.056435605327
1	1460	809.25480625651	1.415498570166
1	1466	815.304079985065	2.669798443798
1	1470	817.405602084169	2.316121408506
1	1474	819.169026040534	3.654943345585
1	1476	820.250762989934	2.478894605734
1	1480	821.628779737464	0.147208476283
1	1486	823.075937930218	0.523114622297
1	1490	825.905054887056	2.905332366661
1	1492	826.285079749989	2.519569294831
1	1496	828.969626381049	0.156926658084
1	1500	830.617888386887	0.184017483615
1	1504	834.134754293613	0.751787355793
1	1508	834.421738426986	0.019434167681
1	1514	836.752855927869	1.131238770759
1	1516	836.868667099748	0.19014835809
1	1522	838.163594102727	0.466764203181
1	1524	838.308646354308	0.410482217812
1	1528	840.296437277603	1.104987252677
1	1532	841.14402942689	0.276575494888
1	1536	845.29988728782	1.217274233585
1	1540	852.183791931769	0.989610363962
1	1544	853.844694257953	0.423016741861
1	1548	856.136670206699	0.046184323701
1	1558	864.57499541015	7.445105329265
1	1560	864.582042060049	7.072739143156
1	1562	865.377313187937	3.196024116872
1	1568	866.753180761278	2.514499471594
1	1570	866.769049208711	0.936384423297
1	1572	866.814210323026	0.799457625848
1	1576	867.221049211262	0.239396034174
1	1586	871.575639359	2.296709499507
1	1588	871.671206313118	2.382044601691
1	1590	873.252982270459	3.90222896438
1	1592	873.489286515015	3.698564640424
1	1596	879.810825128025	4.966888534125
1	1600	882.975309594403	0.992741444811
1	1604	887.607738526736	0.837044009154
1	1612	888.753532290545	0.77792349558
1	1614	888.794260805302	0.620024332884
1	1616	889.557406620805	1.373844243843
1	1620	893.17366944263	1.095881960174
1	1628	895.467031663798	1.618155806546
1	1630	895.698964142979	1.294973658006
1	1632	895.73762134061	0.511197513984
1	1636	901.607654292619	0.313972080898
1	1642	904.078863326532	1.452261110073
1	1644	904.940895740884	1.417178393978
1	1650	909.147667969546	0.461215888885
1	1654	910.292061895757	1.432085598942
1	1656	911.251595905183	1.476436364777
1	1660	913.270313258933	0.386179351603
1	1664	917.659468091991	1.29502005044
1	1668	921.739502331964	0.253255102783
1	1678	925.045868994621	1.965988228964
1	1682	926.014951663715	2.569110323242
1	1684	927.07147827406	2.096775887872
1	1688	928.247864791442	3.216493799415
1	1692	930.573005269319	5.20956996296
1	1694	931.019690238035	3.560849971328
1	1696	931.430744900989	1.818914578549
1	1700	932.850607701355	0.009443866625
1	1708	935.467938620919	1.907732289481
1	1710	937.847658514518	3.076516669882
1	1714	938.566244112215	3.209211313883
1	1720	940.614206927777	2.067592431163
1	1722	940.983222134908	1.955628243069
1	1728	942.842445083013	2.882846818096
1	1730	942.871802815364	1.873473729604
1	1732	943.864919512953	1.804605029694
1	1736	948.689481597829	4.041535176792
1	1744	953.11534193164	3.955889343464
1	1746	953.649577854422	2.745352059429
1	1748	954.099267343867	2.133923759363
1	1752	956.017126582145	0.016675233679
1	1764	960.700297716551	2.125667271289
1	1770	962.492726229067	3.190308937516
1	1786	970.504540611552	11.078567497614
1	1788	970.589251409461	11.079330309972
1	1792	976.018306218423	15.774372406935