version 3
run General-0-20221028-09:56:52-16128
attr configname General
attr datetime 20221028-09:56:52
attr datetimef 20221028-095652
attr experiment General
attr inifile simu_1.ini
attr iterationvars ""
attr iterationvarsd ""
attr iterationvarsf ""
attr measurement ""
attr network Rete
attr processid 16128
attr repetition 0
attr replication #0
attr resultdir results
attr runnumber 0
attr seedset 0
config network Rete
config record-eventlog false
config repeat 30
config sim-time-limit 1000s
config simtime-resolution ps
config **.Servente.serviceTime exponential(1s)
config **.Arrivi.interArrivalTime exponential(2s)

vector 0 Rete.Servente queueLength:vector ETV
attr interpolationmode sample-hold
attr recordingmode vector
attr title "queue length"
vector 1 Rete.Pozzo lifeTime:vector ETV
attr interpolationmode none
attr recordingmode vector
attr title "lifetime of arrived jobs"
attr unit s
0	0	0	0
0	28	18.399684448928	1
0	30	18.516453787114	2
0	31	19.916890592689	1
0	33	20.235246733531	0
0	40	26.445171043473	1
0	41	26.715174464594	0
0	52	32.095102596597	1
0	53	33.695612664414	0
0	68	39.542718408758	1
0	69	40.411709797687	0
0	76	46.14551997344	1
0	77	47.883372524052	0
0	80	50.227304405263	1
0	82	51.510722750619	2
0	83	51.728594393194	1
0	85	53.342596468087	0
0	92	56.191130707122	1
0	93	56.237737838732	0
0	108	64.299775702008	1
0	109	65.65252686306	0
0	116	67.36639738346	1
0	117	67.678070782423	0
0	124	69.062193351583	1
0	125	70.138041613274	0
0	132	72.220870702304	1
0	134	72.511426756888	2
0	136	72.54936389529	3
0	137	72.573108426443	2
0	140	73.332905516643	3
0	141	73.534489365509	2
0	144	73.657178495535	3
0	146	74.160062359685	4
0	147	74.481486042684	3
0	149	74.970043091992	2
0	152	76.079158314421	3
0	153	77.84795811327	2
0	155	78.99309706797	1
0	157	79.590843144788	0
0	200	103.313988239675	1
0	201	103.372190918595	0
0	204	103.392354552501	1
0	205	103.949515229402	0
0	208	105.404096562834	1
0	209	108.404012075578	0
0	268	147.719102196263	1
0	269	147.793917920926	0
0	288	164.691921329023	1
0	290	164.806575181871	2
0	292	166.663532175674	3
0	293	167.028681426861	2
0	296	167.863425948956	3
0	298	167.903806205248	4
0	300	167.983758803365	5
0	301	168.372926699013	4
0	303	168.705336939977	3
0	306	169.149515581099	4
0	308	169.405629111721	5
0	310	170.296468035561	6
0	312	170.998820214324	7
0	314	172.310112783051	8
0	316	172.562890055902	9
0	317	172.596907062822	8
0	319	172.979608011684	7
0	322	174.896637108999	8
0	323	175.103845208686	7
0	326	175.966405860513	8
0	328	176.099000663477	9
0	330	176.587791559641	10
0	331	177.607756991771	9
0	333	178.440600507837	8
0	336	178.946170613771	9
0	337	179.276698039807	8
0	339	179.585112879905	7
0	341	180.296360817122	6
0	343	181.037119767569	5
0	346	182.952651658785	6
0	348	183.149952275622	7
0	349	183.522702124546	6
0	351	184.38059776562	5
0	353	184.46736824796	4
0	355	187.116624176636	3
0	357	187.441964592165	2
0	359	187.825524806264	1
0	361	187.834925556928	0
0	364	188.230561291539	1
0	365	188.935771467019	0
0	392	201.290877842487	1
0	394	202.214339634576	2
0	396	202.223752715561	3
0	398	202.540435728022	4
0	399	202.69611441093	3
0	401	203.539197443078	2
0	403	203.853919103933	1
0	406	204.805704011967	2
0	407	205.07042775737	1
0	409	205.410774495605	0
0	412	207.463219759468	1
0	414	208.599028066429	2
0	415	208.68591767332	1
0	418	209.171070011445	2
0	419	210.096942082614	1
0	421	210.601285889202	0
0	424	210.887855947103	1
0	425	211.497876759988	0
0	444	225.367629071536	1
0	445	226.048330162734	0
0	452	233.300695532747	1
0	453	233.406662371297	0
0	468	240.101162628935	1
0	469	240.396877503121	0
0	472	240.852640313749	1
0	473	242.531707953104	0
0	488	253.036509351589	1
0	490	253.56062383494	2
0	491	254.638242166655	1
0	493	255.140552964916	0
0	496	255.626217856231	1
0	497	255.69194895505	0
0	532	271.476225527963	1
0	533	271.613355463218	0
0	536	271.670071037117	1
0	537	272.457243935809	0
0	540	272.544127064665	1
0	541	273.350973014115	0
0	544	274.149231036182	1
0	545	274.205052749758	0
0	548	274.217637872898	1
0	549	275.264062135139	0
0	560	282.437132005716	1
0	562	282.741719256225	2
0	564	283.658065024141	3
0	566	283.862706253846	4
0	567	284.205603008453	3
0	570	285.007629356703	4
0	571	288.343412768963	3
0	573	288.644978682186	2
0	576	289.457458671154	3
0	577	290.285876260113	2
0	580	290.997612390247	3
0	581	291.50289575545	2
0	583	291.608508399079	1
0	585	291.713390234679	0
0	588	292.185759386895	1
0	590	293.054450698783	2
0	591	294.232672364762	1
0	593	294.866134982485	0
0	596	295.559665748606	1
0	598	299.239131318761	2
0	600	299.562871492186	3
0	601	301.631525502422	2
0	603	303.657434319525	1
0	605	303.69571723241	0
0	632	314.433346808832	1
0	634	314.500920379936	2
0	636	314.644271148562	3
0	637	314.654634818532	2
0	639	315.850073384814	1
0	641	316.317345951224	0
0	648	323.83367908246	1
0	650	323.937504186826	2
0	651	324.024299029983	1
0	653	324.479210874775	0
0	656	327.963049659238	1
0	658	327.996585191222	2
0	659	328.189171466679	1
0	661	328.451500775845	0
0	696	347.079934920081	1
0	697	348.283309739782	0
0	700	348.325129608038	1
0	701	348.536815444925	0
0	728	366.487913599035	1
0	729	367.245471424125	0
0	740	379.270056798046	1
0	741	379.599950895648	0
0	772	398.083198135118	1
0	774	399.769155685947	2
0	775	400.478555189419	1
0	777	401.080234175943	0
0	796	412.065537023429	1
0	797	412.519289864503	0
0	836	440.653201415654	1
0	837	441.054920766227	0
0	840	443.161607955836	1
0	842	444.429467994624	2
0	844	444.91845003871	3
0	845	445.694573292601	2
0	848	446.136115866184	3
0	849	446.782477726215	2
0	851	447.088082628029	1
0	853	447.23567866092	0
0	860	451.394655030952	1
0	861	452.294335663443	0
0	876	463.218315336114	1
0	877	464.211312616573	0
0	880	464.68505068245	1
0	882	464.68516138624	2
0	883	465.20281690947	1
0	885	465.576580203287	0
0	892	469.915145526098	1
0	893	470.406523309842	0
0	900	476.524788189193	1
0	901	477.29985755744	0
0	904	477.742877414611	1
0	905	478.462970840865	0
0	916	482.69448970848	1
0	917	483.485717442693	0
0	940	498.103860851786	1
0	941	498.322949939973	0
0	956	503.700772138022	1
0	957	504.171841806845	0
0	976	513.026126499701	1
0	977	513.903416291504	0
0	996	521.197763083676	1
0	998	521.464444330221	2
0	999	521.50675507538	1
0	1002	522.343355111207	2
0	1003	522.787179429359	1
0	1005	522.81810572092	0
0	1016	530.927648393612	1
0	1018	531.418044578897	2
0	1020	531.592261745414	3
0	1021	533.073804997535	2
0	1023	533.877196760202	1
0	1026	534.358894677716	2
0	1027	535.192823018499	1
0	1029	535.239510762143	0
0	1032	536.115324835153	1
0	1034	536.584636533666	2
0	1036	537.275675701083	3
0	1038	537.951985130772	4
0	1040	538.503041004849	5
0	1041	538.508007162966	4
0	1043	538.613694337071	3
0	1045	538.678807201858	2
0	1047	538.69537329628	1
0	1049	539.506514318508	0
0	1052	540.764877963226	1
0	1054	540.783444011982	2
0	1055	542.159072834028	1
0	1058	543.00026352041	2
0	1059	543.949062438509	1
0	1062	546.075920949363	2
0	1064	546.737740711715	3
0	1065	548.105033534072	2
0	1067	548.987914079029	1
0	1070	549.169121658432	2
0	1071	549.188356274115	1
0	1074	549.301305679819	2
0	1075	549.906602754223	1
0	1078	550.630921178922	2
0	1079	550.775168485689	1
0	1081	552.324180164844	0
0	1092	560.577024100062	1
0	1094	561.791582677301	2
0	1096	562.318736902971	3
0	1097	563.343113432821	2
0	1099	566.325314108294	1
0	1102	566.540514451737	2
0	1103	567.003116110349	1
0	1105	568.26035310592	0
0	1128	581.545165532672	1
0	1129	582.074985026074	0
0	1144	598.830600828359	1
0	1145	599.806412623583	0
0	1156	610.043783717417	1
0	1158	610.671779513544	2
0	1159	611.05585816273	1
0	1161	611.584325391032	0
0	1164	611.591362149096	1
0	1165	611.731550428345	0
0	1168	612.709377489078	1
0	1170	613.416570639604	2
0	1171	613.458183808087	1
0	1174	613.837637216012	2
0	1175	613.970898450717	1
0	1177	614.099478687993	0
0	1188	624.207152029286	1
0	1189	625.146884728226	0
0	1192	625.891424634961	1
0	1194	626.733411231059	2
0	1195	628.75582573321	1
0	1197	630.311120093565	0
0	1204	634.273260323405	1
0	1205	634.700766919201	0
0	1276	673.144895305866	1
0	1278	673.347963473749	2
0	1279	673.490383776275	1
0	1281	673.786285649523	0
0	1308	682.284789198087	1
0	1309	682.307437907351	0
0	1324	692.182260102153	1
0	1325	692.311989472936	0
0	1328	692.362934590316	1
0	1329	692.370517371883	0
0	1336	694.983630351225	1
0	1337	696.029003638942	0
0	1348	701.422172232612	1
0	1349	701.497354914053	0
0	1352	701.567010452841	1
0	1354	701.586481271522	2
0	1356	702.22364896728	3
0	1357	702.383115560083	2
0	1359	702.846505587623	1
0	1361	702.989758609005	0
0	1396	726.708662391348	1
0	1398	727.091254483145	2
0	1399	728.842662518773	1
0	1402	729.165744671351	2
0	1404	729.23775033085	3
0	1405	729.487571009939	2
0	1407	730.050396211756	1
0	1409	730.863294572942	0
0	1416	732.647837489485	1
0	1418	732.958408660495	2
0	1419	733.067700510604	1
0	1421	734.11598961556	0
0	1436	737.901823355234	1
0	1438	738.2502207884	2
0	1440	738.664591152902	3
0	1442	738.941764795748	4
0	1443	740.716628811182	3
0	1445	741.581566920611	2
0	1447	742.366403940203	1
0	1449	742.463201412511	0
0	1460	748.629511505843	1
0	1461	749.06988172669	0
0	1472	756.241687096387	1
0	1474	757.353004922703	2
0	1475	758.389317691928	1
0	1477	759.030291237192	0
0	1480	759.695532312597	1
0	1481	760.233005021021	0
0	1492	764.00563881874	1
0	1493	764.961523780979	0
0	1504	769.567432310855	1
0	1506	770.304598190076	2
0	1507	771.139359560852	1
0	1509	771.404452662259	0
0	1528	786.084450775355	1
0	1530	788.028472557479	2
0	1531	788.913289561746	1
0	1534	789.743342762707	2
0	1535	790.90122901659	1
0	1537	791.072767643963	0
0	1540	793.181481386284	1
0	1541	793.467947433352	0
0	1552	803.324587185251	1
0	1553	804.117423638042	0
0	1580	824.050143143886	1
0	1582	824.30529029148	2
0	1584	825.183444262656	3
0	1586	826.356981876016	4
0	1587	826.51049470898	3
0	1589	827.007703995323	2
0	1591	827.024167279308	1
0	1594	827.239291497475	2
0	1596	827.648996031768	3
0	1597	827.783132053557	2
0	1599	828.296059045386	1
0	1601	829.064521622777	0
0	1604	831.382276972129	1
0	1605	831.713709885007	0
0	1612	835.541838697693	1
0	1614	835.749180370977	2
0	1615	836.568754329623	1
0	1617	836.665295608651	0
0	1624	839.936954579155	1
0	1626	840.117969519452	2
0	1627	840.217334345916	1
0	1629	840.488058736653	0
0	1632	840.647839394727	1
0	1633	841.441181274919	0
0	1656	850.961864027449	1
0	1657	851.145806873986	0
0	1680	866.497358938474	1
0	1682	867.43520159302	2
0	1683	869.595769204582	1
0	1685	869.642504106317	0
0	1704	886.353757925273	1
0	1706	887.271813780248	2
0	1708	887.406882094002	3
0	1710	888.15700598024	4
0	1711	888.858145082314	3
0	1713	890.476806148734	2
0	1715	890.817043368347	1
0	1717	890.890095025502	0
0	1768	923.224815068656	1
0	1770	924.238261496455	2
0	1772	924.332460038566	3
0	1773	924.912163617172	2
0	1775	925.17694589051	1
0	1777	925.773117781907	0
0	1788	933.149535542423	1
0	1790	934.111291991029	2
0	1791	936.787804282939	1
0	1793	937.982294226447	0
0	1804	945.862494742578	1
0	1806	946.415440175665	2
0	1808	946.989258366432	3
0	1810	947.507482878197	4
0	1812	947.731371960485	5
0	1814	949.076137764561	6
0	1815	950.434137984178	5
0	1817	952.655352167378	4
0	1819	952.9211687164	3
0	1821	953.364503112401	2
0	1823	954.534938842415	1
0	1825	955.021457982173	0
0	1836	960.318999270152	1
0	1837	962.212038872168	0
0	1840	962.313597118486	1
0	1841	962.530093417359	0
0	1844	962.598603009787	1
0	1845	963.006609238332	0
0	1852	964.32051697231	1
0	1853	964.917653472913	0
0	1884	981.392127043762	1
0	1886	981.842212031486	2
0	1887	982.628566097214	1
0	1889	983.423788298523	0
0	1892	983.852443328631	1
0	1894	985.318894005988	2
0	1895	985.443372801742	1
0	1897	985.872284637514	0
0	1904	991.002573657372	1
0	1906	991.324858815023	2
0	1907	992.155274810626	1
0	1909	992.296667923359	0
1	4	2.847679767179	1.255930758047
1	8	4.312092917571	0.923223131471
1	12	7.895279350231	0.787201139982
1	16	11.562217368688	0.55104848667
1	20	15.807256291087	1.038159300664
1	24	17.298629040093	0.575519196883
1	32	19.916890592689	2.223524422036
1	34	20.235246733531	1.835562284603
1	36	20.718848838479	2.202395051365
1	42	26.715174464594	1.568896117623
1	44	27.467848577907	1.022677534434
1	48	30.629026297023	0.8394328529
1	54	33.695612664414	2.598254085849
1	56	33.769298019879	1.674195423282
1	60	35.803002151271	0.091161026124
1	64	36.555422706031	0.020425588399
1	70	40.411709797687	1.787487663439
1	72	41.917494056324	2.374775647566
1	78	47.883372524052	2.040314257942
1	84	51.728594393194	5.583074419754
1	86	53.342596468087	3.115292062824
1	88	53.961525927714	2.450803177095
1	94	56.237737838732	1.51653597399
1	96	56.36361224817	0.172481541048
1	100	59.484440464891	1.021431874349
1	104	61.168193675489	0.1547296805
1	110	65.65252686306	2.894420477987
1	112	66.390354154816	2.090578452808
1	118	67.678070782423	0.535565720228
1	120	67.985351134576	0.618953751116
1	126	70.138041613274	1.488254825752
1	128	70.747124036457	1.684930684874
1	138	72.573108426443	0.840334705612
1	142	73.534489365509	1.313618663205
1	148	74.481486042684	1.970059285796
1	150	74.970043091992	2.420679196702
1	154	77.84795811327	4.515052596627
1	156	78.99309706797	5.335918572435
1	158	79.590843144788	5.430780785103
1	160	80.036361639839	3.957203325418
1	164	81.31151746959	0.574532406741
1	168	83.832082029299	1.196107799457
1	172	87.350791643697	0.062115290466
1	176	88.596711272332	1.098912467551
1	180	95.608823619377	1.110597445687
1	184	96.852101142748	0.236206706083
1	188	97.128775257129	0.138028688428
1	192	98.256516590225	0.378961964283
1	196	101.107742065749	0.452102060225
1	202	103.372190918595	0.844427793528
1	206	103.949515229402	0.635526989727
1	210	108.404012075578	5.011657523077
1	212	108.511647183734	3.1075506209
1	216	112.024291365717	0.234301518776
1	220	114.081556219071	0.175913545426
1	224	116.980423879579	1.058742715094
1	228	126.933962398238	0.292080533267
1	232	129.013655153213	0.627941580991
1	236	129.736119934868	0.280277008479
1	240	130.91653238574	0.173127456146
1	244	132.814088487527	0.116955409792
1	248	134.59020773473	1.06807219715
1	252	135.917184409899	0.148712269252
1	256	136.750464423902	0.218880596507
1	260	140.00486845168	0.46001395774
1	264	147.239565935361	1.720331657717
1	270	147.793917920926	0.102144881525
1	272	149.61373684021	1.894634643947
1	276	149.770340839885	0.101034775309
1	280	155.657966255668	3.749031459584
1	284	159.688448137169	0.632336596396
1	294	167.028681426861	3.761927284504
1	302	168.372926699013	3.68100536999
1	304	168.705336939977	3.898761758106
1	318	172.596907062822	5.933374887148
1	320	172.979608011684	5.116182062728
1	324	175.103845208686	7.200039003438
1	332	177.607756991771	9.623998188406
1	334	178.440600507837	9.291084926738
1	338	179.276698039807	9.871068928086
1	340	179.585112879905	9.288644844344
1	342	180.296360817122	9.297540602798
1	344	181.037119767569	8.727006984518
1	350	183.522702124546	10.959812068644
1	352	184.38059776562	9.483960656621
1	354	184.46736824796	8.500962387447
1	356	187.116624176636	11.017623513159
1	358	187.441964592165	10.854173032524
1	360	187.825524806264	8.879354192493
1	362	187.834925556928	4.882273898143
1	366	188.935771467019	5.785819191397
1	368	189.07710218058	0.846540889041
1	372	193.185150403652	1.259933810109
1	376	194.350432068928	0.341654167026
1	380	197.893693283443	0.202350438567
1	384	199.18950733436	0.883129041959
1	388	199.34109099771	0.020312458796
1	400	202.69611441093	1.765741072413
1	402	203.539197443078	2.248319600591
1	404	203.853919103933	1.639579469357
1	408	205.07042775737	2.846675041809
1	410	205.410774495605	2.870338767583
1	416	208.68591767332	3.880213661353
1	420	210.096942082614	2.633722323146
1	422	210.601285889202	2.002257822773
1	426	211.497876759988	2.326806748543
1	428	212.347097571552	1.459241624449
1	432	215.667743091716	0.252419992891
1	436	220.504922215747	3.052281656884
1	440	222.488278383263	0.592624027452
1	446	226.048330162734	1.873459879857
1	448	227.250568729981	1.882939658445
1	454	233.406662371297	0.353020133274
1	456	235.087584575843	1.786889043096
1	460	236.71935139763	0.505018747755
1	464	239.405277039176	2.129499396068
1	470	240.396877503121	0.870535826326
1	474	242.531707953104	2.430545324169
1	476	243.711090886749	2.858450573
1	480	248.873290488652	1.291909268801
1	484	250.052903501624	0.6957994609
1	492	254.638242166655	3.125468357658
1	494	255.140552964916	2.104043613327
1	498	255.69194895505	2.13132512011
1	500	256.624351835457	0.998133979226
1	504	257.574504768567	0.019379781348
1	508	259.202261619734	0.35892721587
1	512	261.192910033782	1.079320198656
1	516	262.974276494352	0.342599624698
1	520	264.27338139059	0.962375055771
1	524	264.838238778072	0.559961070074
1	528	267.18981009952	0.145573978448
1	534	271.613355463218	0.354224132245
1	538	272.457243935809	0.981018407846
1	542	273.350973014115	1.680901976998
1	546	274.205052749758	1.660925685093
1	550	275.264062135139	1.114831098957
1	552	276.319911743799	2.102273870901
1	556	281.727319332584	0.564610501121
1	568	284.205603008453	2.268633992692
1	572	288.343412768963	5.906280763247
1	574	288.644978682186	5.903259425961
1	578	290.285876260113	6.627811235972
1	582	291.50289575545	7.640189501604
1	584	291.608508399079	6.600879042376
1	586	291.713390234679	2.255931563525
1	592	294.232672364762	3.235059974515
1	594	294.866134982485	2.68037559559
1	602	301.631525502422	8.577074803639
1	604	303.657434319525	8.097768570919
1	606	303.69571723241	4.456585913649
1	608	303.873042807555	4.310171315369
1	612	305.219192495609	0.955966423922
1	616	305.81524563575	0.132183709615
1	620	307.932068016486	1.883928886586
1	624	310.714505142446	1.646719101327
1	628	313.913639993903	0.841880961732
1	638	314.654634818532	0.522870030088
1	640	315.850073384814	1.416726575982
1	642	316.317345951224	1.816425571288
1	644	316.921645023072	2.27737387451
1	652	324.024299029983	1.280334203812
1	654	324.479210874775	0.645531792315
1	660	328.189171466679	4.251667279853
1	662	328.451500775845	0.488451116607
1	664	328.463284007763	0.466698816541
1	668	332.315992486723	0.446252820519
1	672	336.074626194204	1.309298364023
1	676	340.722846309605	0.188294975219
1	680	344.043265138415	0.736131099987
1	684	344.192229176635	0.055870052889
1	688	345.704419365514	0.223139208101
1	692	346.327933473179	0.018695470421
1	698	348.283309739782	1.578412722106
1	702	348.536815444925	1.456880524844
1	704	348.960472546282	0.635342938244
1	708	355.109410591473	2.632218862549
1	712	359.465077109081	1.218796803343
1	716	360.15291454583	0.032356804645
1	720	362.116443137386	0.179957341552
1	724	365.969630406464	0.971482158095
1	730	367.245471424125	0.860923636681
1	732	367.517139494467	1.029225895432
1	736	371.611203668032	2.721348255913
1	742	379.599950895648	0.951829707542
1	744	380.36703055022	1.096973752174
1	748	382.43462836547	0.89137857691
1	752	386.847379094902	1.309785371362
1	756	388.690834346994	0.373886495903
1	760	395.500681641486	0.507865122687
1	764	396.844301199017	0.235524573419
1	768	397.292314419777	0.206032048483
1	776	400.478555189419	2.889075591899
1	778	401.080234175943	2.997036040825
1	780	401.754478745579	1.985323059632
1	784	402.717863316355	0.25801276394
1	788	409.782315565411	0.293507651923
1	792	411.830864682122	0.059780962915
1	798	412.519289864503	0.569897565306
1	800	412.892959658897	0.827422635468
1	804	414.595622574464	1.191858103655
1	808	418.135520950205	0.474416290333
1	812	425.352461622857	0.197967735334
1	816	427.102361383978	0.024988353313
1	820	428.71094214349	0.069617671074
1	824	433.635583251717	1.137538505541
1	828	435.826489413122	0.604581218335
1	832	437.293489459718	0.769119801096
1	838	441.054920766227	2.269840015784
1	846	445.694573292601	5.041371876947
1	850	446.782477726215	3.620869770379
1	852	447.088082628029	2.658614633405
1	854	447.23567866092	2.31722862221
1	856	447.25654587953	1.120430013346
1	862	452.294335663443	1.420383455585
1	864	452.680023357488	1.285368326536
1	868	456.145419993392	0.48363838749
1	872	461.244971057245	0.887501928484
1	878	464.211312616573	1.778143336834
1	884	465.20281690947	1.984501573356
1	886	465.576580203287	0.891529520837
1	888	465.89615485816	1.21099347192
1	894	470.406523309842	1.59971944184
1	896	470.611871078578	0.69672555248
1	902	477.29985755744	3.053184669593
1	906	478.462970840865	1.938182651672
1	908	478.705689334537	0.962811919926
1	912	482.008363851532	2.944480277423
1	918	483.485717442693	1.312507992966
1	920	483.77866890118	1.0841791927
1	924	487.1799065358	0.239923519436
1	928	488.423069384646	0.730227665239
1	932	494.033030547431	0.025997745193
1	936	495.515935031809	0.232525018385
1	942	498.322949939973	0.552838370652
1	944	498.79162641595	0.687765564164
1	948	501.348634897872	0.622829309765
1	952	503.129432879246	0.325216017976
1	958	504.171841806845	0.883785656033
1	960	506.165881008122	2.4651088701
1	964	507.121957074267	0.125032589923
1	968	510.474808234682	0.728523842734
1	972	512.134847425839	0.141642034795
1	978	513.903416291504	1.261812673487
1	980	514.407696224755	1.381569725054
1	984	516.29750343071	0.833378240646
1	988	516.910657791924	0.202458763698
1	992	520.535201604489	0.156475770384
1	1000	521.50675507538	0.669540590861
1	1004	522.787179429359	1.589416345683
1	1006	522.81810572092	1.353661390699
1	1008	524.267660497348	1.924305386141
1	1012	529.365590103704	1.380963095667
1	1022	533.073804997535	2.340491960657
1	1024	533.877196760202	2.94954836659
1	1028	535.192823018499	3.774778439602
1	1030	535.239510762143	3.647249016729
1	1042	538.508007162966	4.14911248525
1	1044	538.613694337071	2.498369501918
1	1046	538.678807201858	2.094170668192
1	1048	538.69537329628	1.419697595197
1	1050	539.506514318508	1.554529187736
1	1056	542.159072834028	3.656031829179
1	1060	543.949062438509	3.184184475283
1	1066	548.105033534072	7.32158952209
1	1068	548.987914079029	5.987650558619
1	1072	549.188356274115	3.112435324752
1	1076	549.906602754223	3.168862042508
1	1080	550.775168485689	1.606046827257
1	1082	552.324180164844	3.022874485025
1	1084	554.415736737467	3.784815558545
1	1088	558.631698611825	0.412729866727
1	1098	563.343113432821	3.258920977185
1	1100	566.325314108294	5.748290008232
1	1104	567.003116110349	5.211533433048
1	1106	568.26035310592	5.941616202949
1	1108	569.865811868988	3.325297417251
1	1112	573.209258481855	0.995463643367
1	1116	575.619241274862	2.0737614631
1	1120	576.357994041613	0.346753303789
1	1124	579.280211511616	1.890101698096
1	1130	582.074985026074	0.96201192659
1	1132	582.088310270902	0.54314473823
1	1136	584.940186310008	0.426535812036
1	1140	591.993299253989	0.160334094487
1	1146	599.806412623583	4.007949654874
1	1148	600.457209965942	1.626609137583
1	1152	607.922263159315	0.687943478461
1	1160	611.05585816273	1.020187087955
1	1162	611.584325391032	1.540541673615
1	1166	611.731550428345	1.059770914801
1	1172	613.458183808087	1.866821658991
1	1176	613.970898450717	1.261520961639
1	1178	614.099478687993	0.682908048389
1	1180	614.353490066343	0.515852850331
1	1184	615.372696215718	0.102968363719
1	1190	625.146884728226	1.981890341109
1	1196	628.75582573321	4.548673703924
1	1198	630.311120093565	4.419695458604
1	1200	632.681507674179	5.94809644312
1	1206	634.700766919201	1.48742975434
1	1208	635.105949801543	0.832689478138
1	1212	635.24813849398	0.084579491762
1	1216	636.706508323573	0.522967653656
1	1220	637.166398944305	0.264270464136
1	1224	640.029518319947	0.142125511393
1	1228	645.155443785747	0.054907372551
1	1232	647.180689094237	1.293147858796
1	1236	652.008754043664	0.011493250209
1	1240	653.497558133934	1.472204157994
1	1244	653.709134524026	0.158933179656
1	1248	654.359548055093	0.082862272919
1	1252	658.659331258484	0.093874547283
1	1256	660.257369553804	1.114887421907
1	1260	661.686763689577	0.281524022471
1	1264	665.276828943221	0.545657714767
1	1268	666.67797864262	0.815018330896
1	1272	670.622756059842	1.970057565592
1	1280	673.490383776275	1.298445635605
1	1282	673.786285649523	0.641390343657
1	1284	673.927253533938	0.579290060189
1	1288	674.035250063648	0.056966532467
1	1292	676.129903259599	0.358961318377
1	1296	677.369262908537	0.303971559229
1	1300	679.012961548604	0.609064455324
1	1304	680.780516660214	1.14974138775
1	1310	682.307437907351	1.189496251335
1	1312	682.640841245726	0.356052047639
1	1316	686.592391700883	0.477917987511
1	1320	687.450670218778	0.199855537921
1	1326	692.311989472936	1.553745502032
1	1330	692.370517371883	0.18825726973
1	1332	693.564530742478	1.201596152162
1	1338	696.029003638942	1.508215231627
1	1340	697.531416432653	2.547786081428
1	1344	699.042192299931	0.300325080286
1	1350	701.497354914053	0.468106453235
1	1358	702.383115560083	0.960943327471
1	1360	702.846505587623	1.279495134782
1	1362	702.989758609005	1.403277337483
1	1364	703.209226769899	0.985577802619
1	1368	707.291736229948	0.615919283784
1	1372	709.742378198108	0.045638049496
1	1376	716.490055215265	1.608417849086
1	1380	717.473503190804	0.080078855944
1	1384	719.474871621299	0.731545339133
1	1388	720.377641826982	0.366451291833
1	1392	725.159057427804	0.861667491795
1	1400	728.842662518773	3.204808829612
1	1406	729.487571009939	2.778908618591
1	1408	730.050396211756	2.959141728611
1	1410	730.863294572942	1.697549901591
1	1412	731.576678855743	2.338928524893
1	1420	733.067700510604	0.768253341867
1	1422	734.11598961556	1.468152126075
1	1424	734.441160486049	1.482751825554
1	1428	735.383952650662	0.137953231929
1	1432	737.294376510611	0.49869233287
1	1444	740.716628811182	3.132829489547
1	1446	741.581566920611	3.679743565377
1	1448	742.366403940203	4.116183151803
1	1450	742.463201412511	3.798610259609
1	1452	743.073684257509	4.131919461761
1	1456	745.76566634635	2.137421690417
1	1462	749.06988172669	0.613604209741
1	1464	750.357843701766	1.728332195923
1	1468	752.36137799095	0.509202486866
1	1476	758.389317691928	2.343869640799
1	1478	759.030291237192	2.788604140805
1	1482	760.233005021021	2.880000098318
1	1484	760.630085971041	0.934553658444
1	1488	762.845255606172	1.413783329539
1	1494	764.961523780979	1.010769163099
1	1496	765.235987302983	1.230348484243
1	1500	766.809678063126	0.174995048218
1	1508	771.139359560852	1.591556122793
1	1510	771.404452662259	1.837020351404
1	1512	772.017198107123	1.712599917047
1	1516	777.595109546296	0.89400140268
1	1520	780.051136327694	1.949976911847
1	1524	784.858367422704	0.611057561286
1	1532	788.913289561746	3.033942572398
1	1536	790.90122901659	4.816778241235
1	1538	791.072767643963	3.044295086484
1	1542	793.467947433352	3.724604670645
1	1544	795.15818238811	1.976701001826
1	1548	803.122135930182	0.173656563208
1	1554	804.117423638042	0.991279505759
1	1556	804.625643092095	1.301055906844
1	1560	805.397455225798	0.06476569279
1	1564	811.847952460251	0.55170361259
1	1568	817.116786141446	0.299328382418
1	1572	819.894350108109	1.890729154431
1	1576	820.63916766384	0.033871855242
1	1588	826.51049470898	3.193761872682
1	1590	827.007703995323	2.957560851437
1	1592	827.024167279308	2.718876987828
1	1598	827.783132053557	2.599687790901
1	1600	828.296059045386	1.93907716937
1	1602	829.064521622777	1.825230125302
1	1606	831.713709885007	4.064713853239
1	1608	831.818642632335	0.436365660206
1	1616	836.568754329623	2.905919603656
1	1618	836.665295608651	1.123456910958
1	1620	837.270729390291	1.521549019314
1	1628	840.217334345916	0.395565600395
1	1630	840.488058736653	0.551104157498
1	1634	841.441181274919	1.323211755467
1	1636	841.474815195839	0.826975801112
1	1640	844.322652830219	0.015729123775
1	1644	846.344772119653	0.560008373331
1	1648	847.29455549006	0.070501948361
1	1652	849.613011288676	0.290273415123
1	1658	851.145806873986	0.24995081665
1	1660	851.437752945715	0.475888918266
1	1664	852.838063484179	0.140475716955
1	1668	855.658541461853	0.012109245062
1	1672	856.713083399652	0.122715007317
1	1676	858.904672828969	0.963592696289
1	1684	869.595769204582	3.659562118462
1	1686	869.642504106317	3.145145167843
1	1688	870.168534902077	2.733333309057
1	1692	876.893638342776	0.177876757856
1	1696	878.476302605329	1.018217578807
1	1700	881.693897820524	0.673943444219
1	1712	888.858145082314	4.54782385186
1	1714	890.476806148734	4.123048223461
1	1716	890.817043368347	3.545229588099
1	1718	890.890095025502	3.4832129315
1	1720	891.16640021843	3.00939423819
1	1724	892.301087032821	1.086203311157
1	1728	893.798655619481	0.282446711958
1	1732	895.570826857499	1.096192561009
1	1736	897.212878487642	0.728377573033
1	1740	902.267584901091	0.551802121638
1	1744	906.372239615922	0.808979695133
1	1748	907.278633815576	0.338346118699
1	1752	909.283073487641	1.226132212234
1	1756	912.051079346112	0.53589879534
1	1760	914.642872377328	0.447139902597
1	1764	917.145134702793	1.764087392189
1	1774	924.912163617172	2.589826145497
1	1776	925.17694589051	1.952130821854
1	1778	925.773117781907	1.534856285452
1	1780	926.201625386087	1.869165347521
1	1784	928.703717809689	1.687218288758
1	1792	936.787804282939	4.233015796332
1	1794	937.982294226447	4.832758684024
1	1796	940.33562899452	6.224337003491
1	1800	941.408770788264	0.35176738543
1	1816	950.434137984178	4.829720247969
1	1818	952.655352167378	6.7928574248
1	1820	952.9211687164	6.505728540735
1	1822	953.364503112401	6.375244745969
1	1824	954.534938842415	7.027455964218
1	1826	955.021457982173	7.290086021688
1	1828	955.081586351303	6.005448586742
1	1832	956.418037390018	1.311963081085
1	1838	962.212038872168	2.134702394541
1	1842	962.530093417359	2.211094147207
1	1846	963.006609238332	0.693012119846
1	1848	963.47548739396	0.876884384173
1	1854	964.917653472913	1.381459079848
1	1856	965.189209264595	0.868692292285
1	1860	966.78867250989	0.188564724251
1	1864	970.371372161901	0.596549916877
1	1868	971.53999210386	0.363078840184
1	1872	973.707082094577	1.827526267817
1	1876	976.493477555897	0.271469966429
1	1880	977.787274849047	0.697937548831
1	1888	982.628566097214	2.857425347816
1	1890	983.423788298523	2.031661254761
1	1896	985.443372801742	3.601160770256
1	1898	985.872284637514	2.019841308883
1	1900	987.261643144462	1.942749138474
1	1908	992.155274810626	1.202557344709
1	1910	992.296667923359	1.294094265987
1	1912	997.481797346392	6.156938531369
1	1916	998.807901556578	0.601154646384

