version 3
run General-24-20221103-09:44:57-15908
attr configname General
attr datetime 20221103-09:44:57
attr datetimef 20221103-094457
attr experiment General
attr inifile simu_1.ini
attr iterationvars ""
attr iterationvarsd ""
attr iterationvarsf ""
attr measurement ""
attr network Rete
attr processid 15908
attr repetition 24
attr replication #24
attr resultdir results
attr runnumber 24
attr seedset 24
config network Rete
config record-eventlog true
config repeat 30
config sim-time-limit 1000s
config simtime-resolution ps
config **.Servente.serviceTime exponential(1s)
config **.Arrivi.interArrivalTime exponential(2s)

vector 0 Rete.Servente queueLength:vector ETV
attr interpolationmode sample-hold
attr recordingmode vector
attr title "queue length"
vector 1 Rete.Pozzo lifeTime:vector ETV
attr interpolationmode none
attr recordingmode vector
attr title "lifetime of arrived jobs"
attr unit s
0	0	0	0
0	4	7.136126281825	1
0	6	7.244731639654	2
0	7	7.640964541441	1
0	9	8.022940044095	0
0	24	37.880813167489	1
0	26	39.165915973307	2
0	28	39.926525502394	3
0	29	40.428608538491	2
0	31	40.575421546553	1
0	33	40.89649237743	0
0	44	43.53781287497	1
0	45	43.953139590967	0
0	52	46.751472617156	1
0	53	48.026390339226	0
0	64	54.709503244087	1
0	65	55.181097762003	0
0	80	65.023577352787	1
0	81	65.659840158746	0
0	84	65.877414956662	1
0	85	66.025141612821	0
0	96	69.817083372329	1
0	98	70.662843304621	2
0	99	72.487500697733	1
0	102	75.143325344613	2
0	103	75.410640925176	1
0	105	77.939962944778	0
0	120	92.679431382393	1
0	122	93.096582394495	2
0	123	93.114333116722	1
0	125	93.563224603115	0
0	136	102.082938236963	1
0	137	103.354797629424	0
0	140	103.61133834114	1
0	141	104.047298797709	0
0	144	104.59002801603	1
0	146	105.408958447911	2
0	147	105.946607139016	1
0	149	106.217390617379	0
0	152	107.34253121326	1
0	153	108.195100301833	0
0	184	120.332814892737	1
0	185	121.272127528738	0
0	192	124.155276744223	1
0	193	125.131956360852	0
0	196	126.181349463618	1
0	198	129.969010925649	2
0	199	130.524731699567	1
0	201	130.866792063135	0
0	208	135.042827690574	1
0	209	138.490731493704	0
0	216	151.727016164678	1
0	217	152.039692887259	0
0	244	163.163620423818	1
0	245	164.151058389181	0
0	256	166.958657803739	1
0	258	168.421651515793	2
0	260	169.103095759526	3
0	262	169.32146493435	4
0	263	169.935418519056	3
0	266	170.488075376415	4
0	267	170.871074994386	3
0	270	171.087642793841	4
0	271	171.699373312926	3
0	273	172.278642773703	2
0	276	172.904741556104	3
0	277	173.343683101041	2
0	280	173.565024711021	3
0	281	173.666226446071	2
0	284	174.419795625696	3
0	285	175.617960684286	2
0	287	177.813703660669	1
0	289	179.185620109397	0
0	312	199.827399172446	1
0	314	200.584290810245	2
0	315	200.959186596736	1
0	317	201.036142965149	0
0	336	219.775753229221	1
0	337	219.782206282602	0
0	340	220.209602881302	1
0	341	220.780835521312	0
0	348	221.274671339037	1
0	349	223.311049292784	0
0	360	228.348206394836	1
0	361	228.607198292132	0
0	376	234.415099656787	1
0	377	235.26549595182	0
0	384	236.524831281915	1
0	385	237.099223044777	0
0	388	237.439633536203	1
0	389	237.888821311255	0
0	408	251.049078836562	1
0	410	251.225019003417	2
0	411	251.510467188981	1
0	413	252.022266738042	0
0	440	269.010006009849	1
0	442	269.887924142312	2
0	444	270.883937102607	3
0	445	271.441098002575	2
0	447	272.486038838345	1
0	450	272.807365920155	2
0	451	272.870139160011	1
0	454	273.689776995445	2
0	455	273.878768637383	1
0	458	273.923834540446	2
0	459	274.278101943161	1
0	461	275.112584560134	0
0	464	275.114272498517	1
0	465	275.745434391407	0
0	492	293.579128367651	1
0	493	294.049666837158	0
0	520	327.330792327947	1
0	522	328.796359043939	2
0	523	329.725872791047	1
0	526	329.945463118673	2
0	527	330.030248016462	1
0	529	331.103265208424	0
0	532	331.966399337017	1
0	533	332.82598823854	0
0	548	338.259069040214	1
0	549	338.881267506749	0
0	556	342.167429283107	1
0	558	342.831122651364	2
0	559	342.898135979593	1
0	561	343.098361457685	0
0	580	354.034243541171	1
0	581	354.711313033862	0
0	584	357.257175470322	1
0	585	357.332504772401	0
0	592	358.139080008048	1
0	593	358.815819556767	0
0	600	360.433264119893	1
0	602	361.273959266854	2
0	603	361.478909744502	1
0	605	362.402149738369	0
0	640	400.947765899863	1
0	642	401.442771392214	2
0	644	401.536731566197	3
0	646	401.70093681376	4
0	647	402.42859807306	3
0	649	402.949196673749	2
0	651	403.053948814806	1
0	654	403.374071825285	2
0	656	404.236674760147	3
0	657	404.596705768895	2
0	659	405.098346141358	1
0	662	406.137794140591	2
0	663	406.376899450266	1
0	665	406.516584793862	0
0	676	416.524386762596	1
0	678	417.054749161978	2
0	680	417.452237455257	3
0	682	417.802846355442	4
0	683	418.670275526083	3
0	685	419.824876379559	2
0	688	420.425317430244	3
0	689	420.964877222839	2
0	691	423.118166719713	1
0	693	423.176884430227	0
0	712	435.850973562855	1
0	713	436.362708336786	0
0	724	439.798114704409	1
0	725	441.460720760396	0
0	748	459.463001782844	1
0	749	459.745184206768	0
0	752	460.167698487615	1
0	754	462.279957375772	2
0	755	462.294863278771	1
0	758	463.300801883963	2
0	760	463.692866835221	3
0	762	463.755934651074	4
0	764	463.962301492577	5
0	765	464.826318107785	4
0	767	464.958352056794	3
0	769	465.018274690073	2
0	772	465.908746393804	3
0	773	466.008903836357	2
0	775	466.654515754085	1
0	777	466.992548860152	0
0	792	474.978689952675	1
0	793	476.243547343606	0
0	796	476.379441717003	1
0	798	476.536181639364	2
0	799	476.707404523978	1
0	801	477.104385271529	0
0	804	477.211031390848	1
0	806	477.280445629058	2
0	808	477.35086397071	3
0	810	477.546542793612	4
0	812	477.583288670972	5
0	813	479.219882881252	4
0	815	479.602191642478	3
0	818	479.813751466789	4
0	820	480.754169365205	5
0	822	483.896072435689	6
0	823	484.919957807525	5
0	825	485.012597160874	4
0	827	486.700278623473	3
0	829	487.425284993351	2
0	831	488.451121433194	1
0	833	490.741973364315	0
0	840	496.179676261436	1
0	841	496.777457374957	0
0	856	502.148919283954	1
0	857	503.133528108309	0
0	864	504.744306061171	1
0	865	504.832946346009	0
0	872	511.728806628742	1
0	873	512.355940414294	0
0	916	536.17468179746	1
0	918	537.086402747385	2
0	920	537.10966152607	3
0	921	537.203002498245	2
0	924	537.679077930371	3
0	926	538.404701859532	4
0	927	539.845237465797	3
0	929	540.044865419446	2
0	932	540.332040935378	3
0	933	541.658974336607	2
0	935	541.670999064853	1
0	937	541.672259082132	0
0	956	554.579468611111	1
0	958	556.00656858489	2
0	959	561.108124317532	1
0	961	562.024439357454	0
0	972	566.681195583977	1
0	974	567.114195383275	2
0	975	569.25722194872	1
0	977	570.270665886883	0
0	988	577.600167186899	1
0	989	577.972573385413	0
0	992	578.273719953683	1
0	993	578.280713266875	0
0	996	578.470028859585	1
0	998	578.726896585811	2
0	999	581.645762599647	1
0	1001	582.001442884729	0
0	1008	583.698472426697	1
0	1009	584.012475383769	0
0	1020	588.018353565918	1
0	1021	588.935164952159	0
0	1024	589.093195197023	1
0	1025	590.078443473144	0
0	1028	591.209315331981	1
0	1029	593.182705153175	0
0	1040	605.773084652943	1
0	1041	605.788018576884	0
0	1044	606.013095727389	1
0	1045	606.797256530425	0
0	1052	611.881037913098	1
0	1054	612.694468008522	2
0	1056	612.817787417021	3
0	1057	614.006806448647	2
0	1059	615.286235217838	1
0	1061	615.912256379066	0
0	1080	627.480285087283	1
0	1082	627.572084573826	2
0	1083	631.511079218393	1
0	1086	631.521257412064	2
0	1088	632.429590886567	3
0	1089	632.526178042724	2
0	1092	636.257344933031	3
0	1093	637.836644650447	2
0	1095	638.227570094582	1
0	1097	638.801497534744	0
0	1108	642.494849569683	1
0	1109	642.673931154277	0
0	1128	654.85718331216	1
0	1130	654.963146132366	2
0	1131	655.100204897793	1
0	1133	655.20041209668	0
0	1136	656.047798719751	1
0	1138	656.191435762338	2
0	1140	656.213547024914	3
0	1141	656.839547073666	2
0	1143	657.001607801193	1
0	1145	657.076010276979	0
0	1148	657.646811744267	1
0	1150	658.65654393992	2
0	1152	658.740169360896	3
0	1154	658.834910087995	4
0	1156	658.83534754778	5
0	1158	659.261424555454	6
0	1159	660.905138691675	5
0	1161	662.090244781694	4
0	1163	662.203109317659	3
0	1165	663.200108750677	2
0	1168	663.315983258076	3
0	1169	665.363406306107	2
0	1171	666.420905107336	1
0	1173	666.53394733825	0
0	1212	685.233539313107	1
0	1213	685.287555853693	0
0	1224	687.206051344583	1
0	1225	689.008138416466	0
0	1228	689.016445993625	1
0	1229	689.334717440855	0
0	1256	707.402820605348	1
0	1258	707.592775348426	2
0	1260	707.913961409208	3
0	1261	708.228674562472	2
0	1263	708.545186396953	1
0	1265	709.59644411788	0
0	1268	713.218354619331	1
0	1269	713.640633937976	0
0	1272	713.936351262382	1
0	1274	714.106431219503	2
0	1275	715.404246155881	1
0	1277	715.499064741687	0
0	1300	738.8859046177	1
0	1302	740.260717370503	2
0	1303	740.350426183423	1
0	1305	740.469748949215	0
0	1312	741.37897559572	1
0	1313	742.104373720736	0
0	1320	744.182929750771	1
0	1321	744.556466279936	0
0	1328	745.242356014781	1
0	1329	745.772159967692	0
0	1356	770.701774525228	1
0	1357	770.985125369081	0
0	1360	771.902426293676	1
0	1361	773.776651270493	0
0	1384	791.381785952569	1
0	1386	791.753325057112	2
0	1387	793.157162436042	1
0	1390	793.673857388002	2
0	1391	796.171916866792	1
0	1394	796.661053092269	2
0	1396	797.637691534605	3
0	1397	797.932721508737	2
0	1399	798.393890446822	1
0	1401	800.884994197579	0
0	1404	801.697082694774	1
0	1405	802.063202419324	0
0	1416	804.340629463829	1
0	1418	807.070634774307	2
0	1420	807.228087501952	3
0	1422	808.390115580821	4
0	1423	808.611315871056	3
0	1425	809.579462734728	2
0	1427	810.442045532369	1
0	1429	811.031985283123	0
0	1432	811.110847931176	1
0	1433	811.358198603436	0
0	1452	833.396740154139	1
0	1453	833.788907826223	0
0	1476	842.162396511767	1
0	1478	842.295445289383	2
0	1479	842.431587177233	1
0	1482	843.001308718481	2
0	1484	843.765473945311	3
0	1485	844.069711288012	2
0	1487	845.286536104099	1
0	1490	845.678967320549	2
0	1492	845.693950800694	3
0	1493	845.983845680204	2
0	1496	847.05056590034	3
0	1497	847.260433312334	2
0	1500	847.588153673078	3
0	1502	850.000126185206	4
0	1503	850.120750446937	3
0	1506	850.878680059874	4
0	1507	852.146599773681	3
0	1509	853.229334297151	2
0	1512	853.376846756556	3
0	1513	853.647427499218	2
0	1516	855.164100458314	3
0	1518	855.441716766776	4
0	1520	855.946988781103	5
0	1521	857.889026879732	4
0	1523	858.073675621581	3
0	1526	858.717707568656	4
0	1527	859.068127766352	3
0	1530	859.974009363273	4
0	1531	860.661749306638	3
0	1533	861.107043354649	2
0	1535	861.724815942536	1
0	1537	861.986297842741	0
0	1548	864.250943699261	1
0	1549	864.817871442023	0
0	1560	870.671546848158	1
0	1561	870.739706364641	0
0	1568	871.531331180101	1
0	1570	871.826008249908	2
0	1571	873.100930678755	1
0	1573	875.292852001005	0
0	1580	877.401413920419	1
0	1581	879.844103717361	0
0	1588	881.685010037066	1
0	1589	882.119882111137	0
0	1600	888.872709635635	1
0	1601	889.045354005826	0
0	1608	891.563571205158	1
0	1609	892.550916970003	0
0	1612	893.043068885638	1
0	1613	893.59138837337	0
0	1628	899.723647730684	1
0	1629	899.905737879317	0
0	1636	905.247396490426	1
0	1637	905.787892728127	0
0	1652	910.515318765852	1
0	1653	911.194539292512	0
0	1656	911.749783508994	1
0	1658	912.35588400632	2
0	1660	912.589426714992	3
0	1661	913.806791029617	2
0	1663	913.882209432945	1
0	1665	914.252388894781	0
0	1668	915.105807149964	1
0	1669	915.268927026667	0
0	1700	935.322573471412	1
0	1702	935.328846915255	2
0	1703	935.622864414569	1
0	1705	936.269820794171	0
0	1716	943.412407298768	1
0	1717	943.929198989162	0
0	1720	945.275963303628	1
0	1721	947.190370482008	0
0	1732	955.343524726165	1
0	1733	955.501359315696	0
0	1776	987.387094585279	1
0	1777	989.994908921347	0
0	1788	993.505298938352	1
0	1790	993.616218801105	2
0	1791	994.427620554377	1
0	1793	994.607034781966	0
0	1796	994.706245386793	1
0	1797	994.894707262462	0
0	1808	998.120677474001	1
0	1809	998.220292057959	0
1	8	7.640964541441	1.202347624166
1	10	8.022940044095	0.88681376227
1	12	8.271487679788	1.026756040134
1	16	25.547422731959	0.447939023264
1	20	34.70994750791	1.346462239822
1	30	40.428608538491	5.642420879003
1	32	40.575421546553	2.694608379064
1	34	40.89649237743	1.730576404123
1	36	41.380968241249	1.454442738855
1	40	42.241404590473	0.386426427706
1	46	43.953139590967	0.456360723929
1	48	45.189813169611	1.652000294641
1	54	48.026390339226	2.304010376582
1	56	48.790207740549	2.038735123393
1	60	51.665780374773	0.284080259904
1	66	55.181097762003	1.114152107182
1	68	56.006015836768	1.296512592681
1	72	56.817177793695	0.782109277023
1	76	59.805784096961	2.239118401103
1	82	65.659840158746	1.850106308041
1	86	66.025141612821	1.001564260034
1	88	67.022560454267	1.145145497605
1	92	68.670651617806	1.140181000017
1	100	72.487500697733	3.520912358945
1	104	75.410640925176	5.593557552847
1	106	77.939962944778	7.277119640157
1	108	78.967815254355	3.824489909742
1	112	81.806285817098	0.953597114461
1	116	87.244652308435	0.258360522536
1	124	93.114333116722	0.665594020489
1	126	93.563224603115	0.883793220722
1	128	95.422536095669	2.325953701174
1	132	97.154018193869	0.765031810495
1	138	103.354797629424	1.417983379661
1	142	104.047298797709	1.964360560746
1	148	105.946607139016	2.335268797876
1	150	106.217390617379	1.627362601349
1	154	108.195100301833	2.786141853922
1	156	108.458671654364	1.116140441104
1	160	109.344643398519	0.514529824769
1	164	110.575309830785	0.979164152556
1	168	112.645085957534	0.154360187923
1	172	113.231966753285	0.131018537988
1	176	115.946413518559	0.539276383837
1	180	117.489816151051	0.81392138885
1	186	121.272127528738	2.837347781038
1	188	121.798505171731	1.465690278994
1	194	125.131956360852	1.33465662453
1	200	130.524731699567	6.369454955344
1	202	130.866792063135	4.685442599517
1	204	130.868817387265	0.899806461616
1	210	138.490731493704	3.551962849038
1	212	140.689390720353	5.646563029779
1	218	152.039692887259	1.202269599085
1	220	152.142306808955	0.415290644277
1	224	153.929773365399	0.851976544372
1	228	155.939820240299	1.715004639358
1	232	158.012125186572	0.8230077289
1	236	159.606862391416	0.431956622378
1	240	161.240882034609	0.78416604373
1	246	164.151058389181	2.116845128888
1	248	164.272205708803	1.108585284985
1	252	164.439765691141	0.031943617769
1	264	169.935418519056	3.053574559503
1	268	170.871074994386	3.912417190647
1	272	171.699373312926	3.277721797133
1	274	172.278642773703	3.175547014177
1	278	173.343683101041	4.022218166691
1	282	173.666226446071	3.178151069656
1	286	175.617960684286	4.530317890445
1	288	177.813703660669	4.908962104565
1	290	179.185620109397	5.620595398376
1	292	179.521177589744	5.101381964048
1	296	184.95519764306	1.077517604746
1	300	191.618404167314	3.579855031517
1	304	194.995828958391	1.593929356429
1	308	195.21899584703	0.197797986664
1	316	200.959186596736	1.535597371121
1	318	201.036142965149	1.208743792703
1	320	201.48683313962	0.902542329375
1	324	207.697941478788	0.091990360338
1	328	208.813152756066	0.421340591415
1	332	214.703897586099	0.846553976717
1	338	219.782206282602	0.180937739464
1	342	220.780835521312	1.005082292091
1	344	220.848649309359	0.639046428057
1	350	223.311049292784	2.440402109183
1	352	223.403881920525	2.129210581488
1	356	225.973838424338	0.22237844617
1	362	228.607198292132	0.638569401511
1	364	229.188799047948	0.840592653112
1	368	233.494593951456	1.450519042523
1	372	233.79450780069	0.01282543198
1	378	235.26549595182	1.141508196231
1	380	235.587911157072	1.172811500285
1	386	237.099223044777	0.926290117459
1	390	237.888821311255	1.36399002934
1	392	238.124277617173	0.68464408097
1	396	244.288010403596	0.146324591628
1	400	248.223999366856	1.466041773633
1	404	250.005754081007	0.643565441883
1	412	251.510467188981	0.732123324936
1	414	252.022266738042	0.97318790148
1	416	253.053758903762	1.828739900345
1	420	257.573431681535	0.576699029636
1	424	266.126441017816	0.623225135176
1	428	266.572175552308	0.286125220182
1	432	267.568661828282	0.296735429275
1	436	268.276766839691	0.02326255744
1	446	271.441098002575	2.694222618138
1	448	272.486038838345	3.476032828496
1	452	272.870139160011	2.982215017699
1	456	273.878768637383	2.994831534776
1	460	274.278101943161	1.470736023006
1	462	275.112584560134	1.422807564689
1	466	275.745434391407	1.821599850961
1	468	275.805339260161	0.691066761644
1	472	282.276072022884	1.696105898552
1	476	284.331074446071	0.341562925106
1	480	287.042621217498	1.052945137586
1	484	288.97174807268	0.166888004715
1	488	291.072481455359	0.75135077695
1	494	294.049666837158	1.146170988956
1	496	295.293766070256	1.714637702605
1	500	297.330464033715	1.357188775967
1	504	301.406371668916	0.864491679654
1	508	309.548070038826	0.478842147908
1	512	322.288168279293	1.448380917521
1	516	322.649301392813	0.052595440171
1	524	329.725872791047	2.434247505286
1	528	330.030248016462	2.699455688515
1	530	331.103265208424	2.306906164485
1	534	332.82598823854	2.880525119867
1	536	333.019828131029	1.053428794012
1	540	334.878247151371	0.802496746964
1	544	336.324518426837	0.794973072905
1	550	338.881267506749	2.52983804669
1	552	340.672748405442	2.413679365228
1	560	342.898135979593	1.078865618058
1	562	343.098361457685	0.930932174578
1	564	343.435578038907	0.604455387543
1	568	347.492996351446	2.321450657385
1	572	347.892708758047	0.056807253245
1	576	351.338602170514	0.546618856573
1	582	354.711313033862	1.545973003609
1	586	357.332504772401	3.29826123123
1	588	357.503816050765	0.246640580443
1	594	358.815819556767	0.817768192061
1	596	359.415789296114	1.276709288066
1	604	361.478909744502	1.382244006155
1	606	362.402149738369	1.968885618476
1	608	362.448795558096	1.174836291242
1	612	365.634312038955	0.704497469205
1	616	369.865558373004	0.8887115756
1	620	374.287740441731	0.06375835984
1	624	376.7112559118	0.025238130924
1	628	382.697784743685	0.897934095791
1	632	389.301673679001	1.344683366116
1	636	391.873348112838	0.00973113884
1	648	402.42859807306	4.033795117837
1	650	402.949196673749	2.001430773886
1	652	403.053948814806	1.611177422592
1	658	404.596705768895	3.059974202698
1	660	405.098346141358	3.397409327598
1	664	406.376899450266	3.002827624981
1	666	406.516584793862	2.279910033715
1	668	407.031919181464	0.894125040873
1	672	409.775560838459	2.658062895744
1	684	418.670275526083	2.849689028597
1	686	419.824876379559	3.300489616963
1	690	420.964877222839	3.910128060861
1	692	423.118166719713	5.665929264456
1	694	423.176884430227	5.374038074785
1	696	424.046470660487	3.621153230243
1	700	431.617409494106	1.199896091447
1	704	432.104211578201	0.289396497705
1	708	434.256022684009	1.676211148712
1	714	436.362708336786	0.827612147749
1	716	436.734165666236	0.883192103381
1	720	439.320400318119	0.469419046917
1	726	441.460720760396	1.724940252996
1	728	443.818497122144	4.020382417735
1	732	446.379560189172	2.503951248409
1	736	447.181365260574	0.260651471864
1	740	447.450826407865	0.162142418625
1	744	454.687661433219	1.446808973249
1	750	459.745184206768	0.40039407226
1	756	462.294863278771	2.831861495927
1	766	464.826318107785	4.65861962017
1	768	464.958352056794	2.678394681022
1	770	465.018274690073	1.71747280611
1	774	466.008903836357	2.316037001136
1	776	466.654515754085	2.898581103011
1	778	466.992548860152	3.030247367575
1	780	468.20418113352	2.295434739716
1	784	468.898964326264	0.1078778915
1	788	470.114994298174	0.097256950228
1	794	476.243547343606	1.291119031862
1	800	476.707404523978	1.728714571303
1	802	477.104385271529	0.724943554526
1	814	479.219882881252	2.683701241888
1	816	479.602191642478	2.39116025163
1	824	484.919957807525	7.639512178467
1	826	485.012597160874	7.661733190164
1	828	486.700278623473	9.153735829861
1	830	487.425284993351	9.841996322379
1	832	488.451121433194	8.637369966405
1	834	490.741973364315	9.98780399911
1	836	490.908725599638	7.012653163949
1	842	496.777457374957	1.320728162141
1	844	497.116282790629	0.936606529193
1	848	499.937654029272	0.460659993072
1	852	500.46535555275	0.016873306934
1	858	503.133528108309	1.917228822322
1	860	503.50385432	1.354935036046
1	866	504.832946346009	0.827655264444
1	868	504.928282411212	0.183976350041
1	874	512.355940414294	1.573113609363
1	876	512.385584992208	0.656778363466
1	880	512.946138642055	0.057339624515
1	884	514.854408820225	1.274215864358
1	888	515.342518507731	0.031665665762
1	892	516.577532629639	0.658940858715
1	896	519.503797204665	1.243162971372
1	900	521.007732143318	0.654897629451
1	904	526.13288526887	1.614531233261
1	908	527.139275322936	0.796008898363
1	912	531.373505821787	0.923577058765
1	922	537.203002498245	1.424117401884
1	928	539.845237465797	3.670555668337
1	930	540.044865419446	2.958462672061
1	934	541.658974336607	4.549312810537
1	936	541.670999064853	3.991921134482
1	938	541.672259082132	3.2675572226
1	940	542.500940977579	2.168900042201
1	944	544.440012352888	0.230384176914
1	948	552.058809427382	0.315726757425
1	952	553.851686730924	0.479850015116
1	960	561.108124317532	7.071845049283
1	962	562.024439357454	7.444970746343
1	964	563.46774535382	7.46117676893
1	968	565.316766310943	0.074544215112
1	976	569.25722194872	3.650733067364
1	978	570.270665886883	3.589470302906
1	980	570.545358376837	3.431162993562
1	984	576.28096729015	0.69518265994
1	990	577.972573385413	1.189535911605
1	994	578.280713266875	0.680546079976
1	1000	581.645762599647	3.372042645964
1	1002	582.001442884729	3.531414025144
1	1004	582.746903521033	4.020006935222
1	1010	584.012475383769	0.708301555949
1	1012	584.589856284046	0.891383857349
1	1016	584.654496731971	0.010115089808
1	1022	588.935164952159	1.911580986439
1	1026	590.078443473144	2.060089907226
1	1030	593.182705153175	4.089509956152
1	1032	593.465627464099	2.256312132118
1	1036	597.514601705195	0.149234435141
1	1042	605.788018576884	1.131294850141
1	1046	606.797256530425	1.024171877482
1	1048	607.747914326752	1.734818599363
1	1058	614.006806448647	2.586842389537
1	1060	615.286235217838	3.40519730474
1	1062	615.912256379066	3.217788370544
1	1064	619.552083190414	6.734295773393
1	1068	619.914961665218	0.067147248377
1	1072	621.616000514324	0.901310916537
1	1076	626.012394193598	0.172349837507
1	1084	631.511079218393	5.234731878483
1	1090	632.526178042724	5.045892955441
1	1094	637.836644650447	10.264560076621
1	1096	638.227570094582	6.706312682518
1	1098	638.801497534744	6.371906648177
1	1100	639.346669229149	3.089324296118
1	1104	639.760966175818	0.049491816542
1	1110	642.673931154277	0.457858715937
1	1112	642.855772693934	0.360923124251
1	1116	644.776634412773	0.174406911808
1	1120	650.484244621794	0.471966870567
1	1124	651.630105609025	0.256521916947
1	1132	655.100204897793	0.346093263185
1	1134	655.20041209668	0.34322878452
1	1142	656.839547073666	1.8764009413
1	1144	657.001607801193	0.953809081442
1	1146	657.076010276979	0.884574514641
1	1160	660.905138691675	4.691591666761
1	1162	662.090244781694	4.443433037427
1	1164	662.203109317659	3.546565377739
1	1166	663.200108750677	4.459939389781
1	1170	665.363406306107	6.528496218112
1	1172	666.420905107336	7.585557559556
1	1174	666.53394733825	7.272522782796
1	1176	666.721013724467	3.405030466391
1	1180	667.03576965937	0.016358687784
1	1184	671.855735495056	0.155761567135
1	1188	672.690377960503	0.187064986239
1	1192	679.97401116735	2.233615639887
1	1196	680.324827952621	0.22317280569
1	1200	681.011849431962	0.629534998565
1	1204	681.919787377528	0.168326371217
1	1208	682.163039973296	0.212115108747
1	1214	685.287555853693	0.435568922598
1	1216	685.424656849682	0.191117536575
1	1220	686.241471769598	0.515427634781
1	1226	689.008138416466	1.902843275283
1	1230	689.334717440855	2.128666096272
1	1232	689.88793474094	0.871488747315
1	1236	693.810554825799	1.281812983907
1	1240	695.393368448863	1.068009036785
1	1244	704.306108310995	0.384602176424
1	1248	706.338225086245	0.098446274799
1	1252	706.749514949949	0.03359415637
1	1262	708.228674562472	0.894784952273
1	1264	708.545186396953	1.142365791605
1	1266	709.59644411788	2.003668769454
1	1270	713.640633937976	5.726672528768
1	1276	715.404246155881	2.18589153655
1	1278	715.499064741687	1.562713479305
1	1280	720.470108415608	6.363677196105
1	1284	723.970583089427	0.827472386713
1	1288	726.829032701439	0.224406426933
1	1292	728.316437145725	0.555589868799
1	1296	728.920070077819	0.413560203593
1	1304	740.350426183423	2.402946467951
1	1306	740.469748949215	1.583844331515
1	1308	740.476942817261	0.216225446758
1	1314	742.104373720736	0.793091728769
1	1316	742.229632499864	0.850656904144
1	1322	744.556466279936	1.205222275355
1	1324	744.563082216162	0.380152465391
1	1330	745.772159967692	0.962186810731
1	1332	746.383828796927	1.141472782146
1	1336	746.813831061735	0.187373736754
1	1340	757.362683144163	1.137133401698
1	1344	758.475201162309	0.07819700799
1	1348	763.506973452648	0.491312650881
1	1352	770.561250116695	0.322255322838
1	1358	770.985125369081	0.314315704836
1	1362	773.776651270493	3.074876745265
1	1364	775.284133047954	3.381706754278
1	1368	778.306193258956	1.511798012658
1	1372	780.872187462714	0.119167036187
1	1376	786.157086954943	0.028088546331
1	1380	786.725758648045	0.529299276591
1	1388	793.157162436042	2.000686326157
1	1392	796.171916866792	4.790130914223
1	1398	797.932721508737	6.179396451625
1	1400	798.393890446822	4.72003305882
1	1402	800.884994197579	4.22394110531
1	1406	802.063202419324	4.425510884719
1	1408	802.107891695239	0.410809000465
1	1412	804.129595225044	1.158230993326
1	1424	808.611315871056	4.318874508669
1	1426	809.579462734728	5.238833270899
1	1428	810.442045532369	3.371410758062
1	1430	811.031985283123	3.803897781171
1	1434	811.358198603436	2.968083022615
1	1436	812.824244233088	1.713396301912
1	1440	814.4758524265	0.952839857715
1	1444	829.771766736781	2.876234423916
1	1448	831.041028820629	0.719688353806
1	1454	833.788907826223	1.219431174396
1	1456	835.098776942417	1.702036788278
1	1460	835.76330611426	0.079177414865
1	1464	837.109596905479	0.149310102198
1	1468	837.806878251534	0.678246180965
1	1472	840.095598911622	0.194751764053
1	1480	842.431587177233	0.315249700053
1	1486	844.069711288012	1.907314776245
1	1488	845.286536104099	2.991090814716
1	1494	845.983845680204	2.982536961723
1	1498	847.260433312334	3.494959367023
1	1504	850.120750446937	4.441783126388
1	1508	852.146599773681	6.452648972987
1	1510	853.229334297151	6.178768396811
1	1514	853.647427499218	6.05927382614
1	1522	857.889026879732	7.888900694526
1	1524	858.073675621581	7.194995561707
1	1528	859.068127766352	5.691281009796
1	1532	860.661749306638	5.497648848324
1	1534	861.107043354649	5.665326587873
1	1536	861.724815942536	5.777827161433
1	1538	861.986297842741	3.268590274085
1	1540	862.718512846433	2.74450348316
1	1544	863.68283047615	0.936168214032
1	1550	864.817871442023	0.609042408854
1	1552	866.503421741188	2.252478041927
1	1556	870.211785326035	0.365625619455
1	1562	870.739706364641	0.323516718967
1	1564	871.18893723419	0.517390386032
1	1572	873.100930678755	1.706111241988
1	1574	875.292852001005	3.761520820904
1	1576	876.426750816576	4.600742566668
1	1582	879.844103717361	2.68883811807
1	1584	880.891472179668	3.490058259249
1	1590	882.119882111137	0.711321630678
1	1592	882.700920022068	1.015909985002
1	1596	886.598714885528	0.069631625278
1	1602	889.045354005826	1.603913256163
1	1604	889.073273570049	0.200563934414
1	1610	892.550916970003	1.082456949806
1	1614	893.59138837337	2.027817168212
1	1616	895.195996216807	2.152927331169
1	1620	895.97956301808	0.256291761771
1	1624	897.26335243211	0.164420142465
1	1630	899.905737879317	0.845888709791
1	1632	900.432987937092	0.709340206408
1	1638	905.787892728127	2.239943397744
1	1640	905.995943428336	0.74854693791
1	1644	907.198411572112	0.141408268666
1	1648	910.217706630897	0.388191508626
1	1654	911.194539292512	0.843356537695
1	1662	913.806791029617	3.291472263765
1	1664	913.882209432945	2.132425923951
1	1666	914.252388894781	1.896504888461
1	1670	915.268927026667	2.679500311675
1	1672	915.75903716292	0.653230012956
1	1676	920.410105751959	0.261924255699
1	1680	922.183162380837	0.557427349065
1	1684	922.933559544331	0.010553399616
1	1688	925.954809311778	0.820671395604
1	1692	930.173915029474	0.146827423109
1	1696	931.721817821309	0.232379754563
1	1704	935.622864414569	0.582287768295
1	1706	936.269820794171	0.947247322759
1	1708	936.395761946836	1.066915031581
1	1712	941.53788438254	2.514440796695
1	1718	943.929198989162	2.099206320631
1	1722	947.190370482008	3.77796318324
1	1724	947.589990026636	2.314026723008
1	1728	952.224304444879	1.159760253586
1	1734	955.501359315696	0.424336190107
1	1736	956.108059958766	0.764535232601
1	1740	960.446386155177	0.757029139661
1	1744	962.473699509894	0.217228913061
1	1748	965.515141160807	0.072053045854
1	1752	965.699380193604	0.173177432505
1	1756	966.753044160954	0.627683209022
1	1760	971.565876359592	0.966057154102
1	1764	976.540725072673	0.345169278032
1	1768	977.987419666906	0.113374143972
1	1772	980.821876404569	0.278790957248
1	1778	989.994908921347	5.725315374854
1	1780	990.254098779454	2.867004194175
1	1784	991.213972949795	0.257553650577
1	1792	994.427620554377	2.036461366096
1	1794	994.607034781966	1.101735843614
1	1798	994.894707262462	1.278488461357
1	1800	995.56824102083	0.861995634037
1	1804	997.641586377628	1.839784793035
1	1810	998.220292057959	0.460856446929

