version 3
run General-17-20221028-09:56:52-16128
attr configname General
attr datetime 20221028-09:56:52
attr datetimef 20221028-095652
attr experiment General
attr inifile simu_1.ini
attr iterationvars ""
attr iterationvarsd ""
attr iterationvarsf ""
attr measurement ""
attr network Rete
attr processid 16128
attr repetition 17
attr replication #17
attr resultdir results
attr runnumber 17
attr seedset 17
config network Rete
config record-eventlog false
config repeat 30
config sim-time-limit 1000s
config simtime-resolution ps
config **.Servente.serviceTime exponential(1s)
config **.Arrivi.interArrivalTime exponential(2s)

vector 0 Rete.Servente queueLength:vector ETV
attr interpolationmode sample-hold
attr recordingmode vector
attr title "queue length"
vector 1 Rete.Pozzo lifeTime:vector ETV
attr interpolationmode none
attr recordingmode vector
attr title "lifetime of arrived jobs"
attr unit s
0	0	0	0
0	4	1.099407450441	1
0	5	1.454436611554	0
0	20	13.556524252668	1
0	21	13.568585468442	0
0	24	13.77390938538	1
0	26	14.269553023246	2
0	27	14.583373927384	1
0	29	15.576971315689	0
0	40	19.999162775812	1
0	42	22.71314829702	2
0	43	22.827787259284	1
0	46	22.83699416366	2
0	47	23.672728403799	1
0	49	23.707644117794	0
0	64	29.287292412052	1
0	65	29.452851067432	0
0	68	29.540831724602	1
0	70	30.253136401681	2
0	71	30.362944174745	1
0	73	30.837524763763	0
0	80	31.576856276584	1
0	81	31.928038447749	0
0	92	34.458260826276	1
0	94	35.244611266136	2
0	95	35.917598609918	1
0	98	36.328846173801	2
0	99	36.436120613568	1
0	102	36.639591512535	2
0	103	36.788172712731	1
0	106	36.966763912508	2
0	108	37.08041547061	3
0	109	37.882196238	2
0	112	38.538462437473	3
0	113	39.148176349564	2
0	115	39.493935883192	1
0	117	39.688147098496	0
0	124	42.816298665013	1
0	125	43.15941208541	0
0	136	48.00583840085	1
0	137	48.662318716156	0
0	152	54.219900871167	1
0	153	54.303835266407	0
0	168	66.261742547793	1
0	169	68.268605499468	0
0	172	69.142722354457	1
0	174	69.245431387567	2
0	175	69.345080818206	1
0	177	71.123662744686	0
0	180	71.782639495355	1
0	182	71.802514029815	2
0	183	72.484588701906	1
0	185	72.724241166812	0
0	192	76.56705583235	1
0	193	77.676793938995	0
0	232	103.74015406838	1
0	233	103.786607751709	0
0	244	109.109283515483	1
0	246	109.231800321435	2
0	248	109.671707051764	3
0	250	110.183099894878	4
0	252	110.357105329719	5
0	253	110.798492783273	4
0	255	112.951488042429	3
0	257	113.131395418835	2
0	259	113.147216101086	1
0	261	113.587467220473	0
0	272	125.388088083104	1
0	273	126.24342144008	0
0	276	127.588231981958	1
0	278	128.586980980469	2
0	279	128.721671335944	1
0	282	129.226876955051	2
0	284	129.7662499002	3
0	285	129.771066995408	2
0	287	130.142884353882	1
0	290	132.349333955345	2
0	291	132.584722018383	1
0	293	132.900191031778	0
0	300	135.861389829347	1
0	301	135.989813318427	0
0	312	140.936278416389	1
0	313	140.987442505814	0
0	340	160.331258797304	1
0	341	160.423709783782	0
0	344	160.676102673597	1
0	345	161.447794076838	0
0	352	162.552707439917	1
0	353	163.083420968548	0
0	356	164.435291673174	1
0	358	166.115170028084	2
0	359	166.31097928513	1
0	362	167.565191288419	2
0	363	168.193773052806	1
0	365	168.211430099358	0
0	368	169.252317853876	1
0	370	170.160520956648	2
0	371	172.63483419459	1
0	373	173.608238092432	0
0	376	173.738498804785	1
0	378	174.260066697343	2
0	379	174.297679519284	1
0	382	174.427158943281	2
0	383	174.921805385301	1
0	385	175.665464576881	0
0	396	181.081273993845	1
0	398	182.080438637228	2
0	399	182.550112515009	1
0	401	182.697165616858	0
0	412	187.458627136458	1
0	414	187.742523036643	2
0	415	187.937570813189	1
0	417	190.677070051415	0
0	436	202.093995439761	1
0	438	203.131236590928	2
0	439	204.039423793739	1
0	442	204.490128897087	2
0	443	204.852639897539	1
0	445	205.197824659362	0
0	456	209.803219972255	1
0	457	211.008530200581	0
0	476	229.376763466911	1
0	478	229.638701978922	2
0	480	230.957564690325	3
0	482	231.938876711426	4
0	483	232.674500745903	3
0	485	233.399721923404	2
0	488	233.495186696755	3
0	490	234.528786884234	4
0	491	234.641649790046	3
0	493	236.497346959857	2
0	495	236.535016784944	1
0	498	236.854651692717	2
0	500	241.236212625151	3
0	501	241.398460269523	2
0	503	241.607434930702	1
0	506	242.392528405329	2
0	507	244.40245369969	1
0	510	245.439303503426	2
0	511	246.872959612419	1
0	513	246.968316220477	0
0	516	247.504537613456	1
0	517	247.632679640742	0
0	520	247.688987988814	1
0	521	250.278388260506	0
0	524	250.391605427566	1
0	526	250.476116265214	2
0	527	250.592936577726	1
0	529	251.741346362625	0
0	540	261.314496179271	1
0	542	262.320171310833	2
0	543	263.18579779954	1
0	546	264.081225718011	2
0	547	264.357859328002	1
0	549	265.557140132283	0
0	568	274.411576355002	1
0	570	274.775047736475	2
0	571	274.805603077867	1
0	574	275.144994157403	2
0	575	275.620821715335	1
0	578	275.998105420039	2
0	579	276.206300291937	1
0	582	276.481018381738	2
0	584	279.645912238974	3
0	586	280.410519117135	4
0	588	283.54816043483	5
0	589	283.926011710079	4
0	591	284.10578494133	3
0	593	286.091028314547	2
0	595	287.478779910054	1
0	598	288.393947213175	2
0	600	288.508986424008	3
0	602	288.91663397196	4
0	603	288.923541220661	3
0	605	289.356566531918	2
0	608	289.445790506108	3
0	610	289.478352070336	4
0	611	290.406664221242	3
0	613	291.640092150804	2
0	616	292.011763851873	3
0	617	292.294113754167	2
0	619	292.706021570279	1
0	622	292.779161379709	2
0	623	293.706912494779	1
0	626	293.76679126646	2
0	627	295.054268662602	1
0	629	295.241384032988	0
0	640	302.689530145954	1
0	642	303.814571391125	2
0	643	304.507049900239	1
0	645	305.924888898037	0
0	652	309.39069641453	1
0	653	310.221598749422	0
0	660	311.394512625764	1
0	662	312.46386533154	2
0	663	314.196510322982	1
0	665	315.795785889546	0
0	672	321.132902148358	1
0	674	321.566681514333	2
0	676	321.741150030342	3
0	677	321.892478370731	2
0	679	322.269192023236	1
0	681	323.240636085509	0
0	688	323.764360208606	1
0	689	323.857448382863	0
0	700	331.722709366142	1
0	701	331.926451529142	0
0	712	334.751689944944	1
0	713	336.304043767764	0
0	716	336.435006643857	1
0	717	336.450879837358	0
0	720	336.625199017504	1
0	721	336.962078877722	0
0	724	337.493170217538	1
0	725	337.802532540836	0
0	748	347.928418388881	1
0	749	348.007224791396	0
0	752	348.212662834003	1
0	753	348.266804064282	0
0	756	348.305512804671	1
0	757	348.477381570049	0
0	772	358.682050503061	1
0	774	358.929406539651	2
0	775	359.108950464636	1
0	777	359.425472503074	0
0	780	359.474195085578	1
0	781	361.974023848937	0
0	792	370.793433803712	1
0	794	374.443405206071	2
0	795	374.453235225734	1
0	798	375.995355233138	2
0	800	377.370906824588	3
0	802	377.560041255255	4
0	803	378.058021676216	3
0	805	378.197795123145	2
0	807	381.45558982503	1
0	809	381.93589022376	0
0	820	384.350145574332	1
0	822	384.633355031723	2
0	823	384.973294047444	1
0	825	385.726748861738	0
0	832	390.39116511251	1
0	834	391.039309928768	2
0	835	393.272711709268	1
0	837	393.277323897291	0
0	848	395.547149180577	1
0	850	395.551029273653	2
0	852	397.002672713483	3
0	853	397.333951658955	2
0	855	399.227321922223	1
0	857	400.188076667149	0
0	876	408.949459871864	1
0	877	409.695029504993	0
0	888	412.752606221309	1
0	889	413.775778298314	0
0	896	415.503478662969	1
0	897	415.520062816244	0
0	944	452.901400830911	1
0	945	453.268187395488	0
0	948	453.755490410921	1
0	949	454.735232997225	0
0	960	458.979892566987	1
0	961	460.284490088144	0
0	964	462.462590121993	1
0	966	463.02626558615	2
0	968	466.432939821236	3
0	970	466.74136266195	4
0	972	467.897282178756	5
0	973	468.721869754508	4
0	975	469.140384559595	3
0	978	469.166136546626	4
0	979	469.243282837762	3
0	981	469.506542917458	2
0	984	469.985118021964	3
0	985	471.62234123573	2
0	987	473.014897569627	1
0	990	473.484722819342	2
0	992	473.645235944483	3
0	994	474.937728412218	4
0	995	475.472651965289	3
0	998	476.431856792694	4
0	999	477.244296631867	3
0	1001	477.553829457329	2
0	1003	478.222520019482	1
0	1005	478.335434615182	0
0	1008	478.667859450411	1
0	1010	479.0398851798	2
0	1011	479.07769352083	1
0	1013	479.912854744493	0
0	1028	491.73374839589	1
0	1029	492.162163399952	0
0	1032	494.036025673181	1
0	1034	494.24164399952	2
0	1035	495.935819654151	1
0	1037	497.276866305836	0
0	1040	497.696079477036	1
0	1041	498.784909034	0
0	1088	538.05182950695	1
0	1090	540.280934406509	2
0	1092	540.895114668212	3
0	1093	544.458044932981	2
0	1095	544.638071211914	1
0	1097	545.035484682308	0
0	1108	549.554888918028	1
0	1110	550.998568273902	2
0	1112	551.900031266341	3
0	1113	552.027698991516	2
0	1115	552.951608291425	1
0	1117	553.027456809767	0
0	1188	598.109618568506	1
0	1190	599.181157084124	2
0	1192	599.899521175493	3
0	1194	601.137754999227	4
0	1195	601.617110603533	3
0	1197	602.70166063132	2
0	1200	603.277102800316	3
0	1202	604.141267519933	4
0	1203	604.288570698748	3
0	1205	607.734280858345	2
0	1208	608.301654233606	3
0	1209	608.958302076966	2
0	1212	609.285469927271	3
0	1213	610.046836315034	2
0	1216	610.578010923946	3
0	1217	610.699000502071	2
0	1219	611.143692649519	1
0	1222	611.321282681932	2
0	1223	611.564088448313	1
0	1225	612.399684689999	0
0	1232	618.945421975065	1
0	1233	619.440297339661	0
0	1264	637.974946875317	1
0	1266	638.782550741669	2
0	1268	640.208890835965	3
0	1270	640.552710120867	4
0	1271	641.354309133622	3
0	1273	641.596765788497	2
0	1276	641.735438994707	3
0	1278	642.68899169151	4
0	1279	642.75099086252	3
0	1282	642.953907353245	4
0	1283	642.9828849697	3
0	1285	644.943628317594	2
0	1288	645.354273384538	3
0	1290	645.392806907424	4
0	1291	645.522368636182	3
0	1293	646.972909247063	2
0	1296	647.52579625764	3
0	1298	647.616810594567	4
0	1299	648.56721415182	3
0	1302	649.206700743439	4
0	1304	649.935110579723	5
0	1305	650.3062457407	4
0	1307	650.705545748326	3
0	1309	650.707062118751	2
0	1311	650.943285938657	1
0	1313	650.994381914622	0
0	1316	652.521606408599	1
0	1317	652.542999470691	0
0	1324	653.765975118484	1
0	1325	654.620940650776	0
0	1328	654.657577671905	1
0	1329	654.960077507414	0
0	1344	662.507244041149	1
0	1345	663.860288102561	0
0	1348	664.752623585632	1
0	1349	665.139361596269	0
0	1360	668.428448176776	1
0	1361	668.843269054297	0
0	1372	674.480856520273	1
0	1373	674.820017030746	0
0	1380	677.818139992436	1
0	1381	678.453109531406	0
0	1412	697.904044747751	1
0	1413	698.585299272365	0
0	1420	705.073509931537	1
0	1421	705.229627854156	0
0	1456	726.24995970871	1
0	1457	726.376036633113	0
0	1468	729.678115491881	1
0	1470	730.133956811158	2
0	1471	730.556354665977	1
0	1474	731.142676071572	2
0	1475	731.419001129217	1
0	1477	731.484823882087	0
0	1480	732.05295532018	1
0	1481	732.389379390837	0
0	1508	752.745824924613	1
0	1509	752.976631273279	0
0	1524	760.803467895078	1
0	1526	761.933933070147	2
0	1527	762.12730253154	1
0	1530	763.140228803616	2
0	1531	763.806161638345	1
0	1533	763.881106072557	0
0	1544	772.064803465866	1
0	1546	772.352802237524	2
0	1547	772.549084975174	1
0	1550	773.35706254848	2
0	1551	773.38739774443	1
0	1554	774.387875424842	2
0	1556	774.587532669353	3
0	1558	774.896504200085	4
0	1559	775.714090675945	3
0	1561	777.510724377263	2
0	1563	777.86883294772	1
0	1565	778.049275475951	0
0	1568	778.353675773969	1
0	1569	778.964814098156	0
0	1572	779.341076730614	1
0	1573	779.871190753746	0
0	1584	783.142316981029	1
0	1585	783.41365263254	0
0	1592	791.860467665528	1
0	1593	792.280935457961	0
0	1608	803.513496183286	1
0	1609	803.627514692727	0
0	1612	804.871587307376	1
0	1614	804.984311525721	2
0	1615	805.272864465574	1
0	1617	806.075757946703	0
0	1620	806.139112047512	1
0	1621	806.301350238144	0
0	1636	811.164962673078	1
0	1638	811.447575946093	2
0	1639	812.215624657477	1
0	1641	812.540201980516	0
0	1644	814.409208593192	1
0	1646	814.543727427405	2
0	1647	815.45968133767	1
0	1650	815.882590263744	2
0	1651	815.991121916242	1
0	1653	817.838281607612	0
0	1660	822.055034443492	1
0	1662	822.55112792851	2
0	1664	822.718351918828	3
0	1665	824.205958268708	2
0	1667	824.208227372289	1
0	1670	824.479057356728	2
0	1672	824.661547577758	3
0	1674	825.611159728231	4
0	1675	826.96970631637	3
0	1678	827.126606699822	4
0	1679	827.478730653928	3
0	1681	827.772959518097	2
0	1684	827.874819963947	3
0	1686	829.161983007238	4
0	1687	829.240546256773	3
0	1690	830.24731675546	4
0	1691	830.477293032394	3
0	1694	831.858004671245	4
0	1696	833.04848564825	5
0	1698	836.537322621143	6
0	1700	836.61721982119	7
0	1701	836.679437883462	6
0	1703	836.981482791227	5
0	1705	839.091361796915	4
0	1707	839.143663462172	3
0	1710	839.800792801037	4
0	1711	839.815077686214	3
0	1714	840.017675628057	4
0	1715	840.024744141584	3
0	1717	840.108056100477	2
0	1719	841.620927970618	1
0	1721	842.325532948879	0
0	1724	843.622584668691	1
0	1725	843.733453255689	0
0	1728	843.96188623762	1
0	1730	845.640705050706	2
0	1731	845.641779469054	1
0	1733	845.686384104162	0
0	1752	859.519438002227	1
0	1753	859.791667313654	0
0	1760	863.173630331569	1
0	1761	863.434522887014	0
0	1768	869.370780321324	1
0	1770	870.681329867584	2
0	1771	871.459217923829	1
0	1774	871.488334621638	2
0	1775	871.713282628902	1
0	1777	872.515534448465	0
0	1820	903.729565419467	1
0	1821	905.472708585427	0
0	1824	905.651342119744	1
0	1826	909.229436876256	2
0	1827	909.940331127469	1
0	1829	910.366268722986	0
0	1880	952.439592029661	1
0	1881	953.031506504099	0
0	1884	953.761918970022	1
0	1885	956.188397291775	0
0	1888	956.487249189184	1
0	1889	956.753960406868	0
0	1916	968.500673092916	1
0	1918	969.125480459999	2
0	1919	969.638858654745	1
0	1921	970.303781965716	0
0	1928	972.983976524728	1
0	1930	974.0828794071	2
0	1932	974.424358528005	3
0	1933	974.713066917538	2
0	1936	975.882413170314	3
0	1937	977.089163540092	2
0	1939	977.838022605286	1
0	1941	978.681441410562	0
0	1944	978.703695419426	1
0	1945	978.706651795684	0
0	1952	980.590281396829	1
0	1953	981.028957484125	0
0	1964	985.424906925532	1
0	1966	985.441562526289	2
0	1968	985.557989935254	3
0	1970	986.875489819173	4
0	1972	988.556008620126	5
0	1973	989.404594045479	4
0	1976	989.484993943374	5
0	1978	991.115131750934	6
0	1979	991.292474064237	5
0	1981	993.65442520638	4
0	1984	993.981089239899	5
0	1985	994.752584536458	4
0	1987	994.790214276627	3
0	1990	995.664607086596	4
0	1991	995.687934854307	3
0	1993	998.056372667814	2
0	1995	998.078199209547	1
0	1997	999.193055885282	0
0	2004	999.668018427581	1
1	6	1.454436611554	0.75627177442
1	8	1.667036920504	0.567629470063
1	12	4.888521774519	0.070315555747
1	16	10.758617195835	1.54639486239
1	22	13.568585468442	1.06808363244
1	28	14.583373927384	1.026849674716
1	30	15.576971315689	1.803061930309
1	32	15.616817654068	1.347264630822
1	36	16.42660107478	0.44287668452
1	44	22.827787259284	2.912921405957
1	48	23.672728403799	3.673565627987
1	50	23.707644117794	0.994495820774
1	52	25.805579834832	2.968585671172
1	56	26.880364805541	0.05255057294
1	60	28.370021806973	1.056756455549
1	66	29.452851067432	0.802407225079
1	72	30.362944174745	1.075651762693
1	74	30.837524763763	1.296693039161
1	76	31.170187691839	0.917051290158
1	82	31.928038447749	0.353431233518
1	84	32.752454221194	1.17559794461
1	88	33.379881087653	0.504259629698
1	96	35.917598609918	1.55447972798
1	100	36.436120613568	1.977859787292
1	104	36.788172712731	1.543561446595
1	110	37.882196238	1.553350064199
1	114	39.148176349564	2.508584837029
1	116	39.493935883192	2.527171970684
1	118	39.688147098496	2.607731627886
1	120	39.909759167628	1.371296730155
1	126	43.15941208541	1.780012273214
1	128	43.998721222518	1.182422557505
1	132	46.058945016614	0.085928057337
1	138	48.662318716156	0.787454725102
1	140	48.835433281066	0.829594880216
1	144	50.016006521855	1.12936757193
1	148	50.572554826972	0.126098812202
1	154	54.303835266407	0.588780072644
1	156	56.492934825381	2.273033954214
1	160	62.440683192443	1.595869029934
1	164	64.306173542432	0.070399644374
1	170	68.268605499468	3.238766118723
1	176	69.345080818206	3.083338270413
1	178	71.123662744686	1.980940390229
1	184	72.484588701906	3.239157314339
1	186	72.724241166812	0.941601671457
1	188	72.86804880111	1.065534771295
1	194	77.676793938995	1.500469520979
1	196	79.496900455476	2.929844623126
1	200	83.453343399316	1.767875587104
1	204	85.511176869815	0.029590509279
1	208	86.502776598366	0.494910432672
1	212	90.105552575161	0.574923329135
1	216	90.946117146545	0.73529310884
1	220	96.974134308643	0.678993163975
1	224	97.27086303133	0.139755611974
1	228	102.757652397344	4.159429658286
1	234	103.786607751709	0.067960181395
1	236	104.652405185452	0.912251117072
1	240	105.540472919221	0.869347097513
1	254	110.798492783273	3.086485887923
1	256	112.951488042429	3.842204526946
1	258	113.131395418835	3.8995950974
1	260	113.147216101086	3.475509049322
1	262	113.587467220473	3.404367325595
1	264	115.175117435836	4.818012106117
1	268	118.126185252913	1.461839111599
1	274	126.24342144008	2.056067156168
1	280	128.721671335944	3.33358325284
1	286	129.771066995408	2.18283501345
1	288	130.142884353882	1.555903373413
1	292	132.584722018383	3.357845063332
1	294	132.900191031778	3.133941131578
1	296	132.986550430461	0.637216475116
1	302	135.989813318427	1.125427957285
1	304	137.94544321802	2.084053388673
1	308	139.288933518229	1.180571712424
1	314	140.987442505814	1.537506579011
1	316	141.423286283759	0.48700786737
1	320	141.989819804056	0.248707631572
1	324	148.410556284958	0.281530882462
1	328	149.953290540021	1.299795693059
1	332	151.586010909943	0.066276316263
1	336	152.471045380113	0.604655580291
1	342	160.423709783782	0.668800640168
1	346	161.447794076838	1.116535279534
1	348	161.560032474825	0.883929801228
1	354	163.083420968548	0.852400708586
1	360	166.31097928513	3.758271845213
1	364	168.193773052806	3.758481379632
1	366	168.211430099358	2.096260071274
1	372	172.63483419459	5.069642906171
1	374	173.608238092432	4.355920238556
1	380	174.297679519284	4.137158562636
1	384	174.921805385301	1.183306580516
1	386	175.665464576881	1.405397879538
1	388	176.914038752453	2.486879809172
1	392	179.84095985611	1.317186479647
1	400	182.550112515009	1.735114430321
1	402	182.697165616858	1.615891623013
1	404	183.230002771191	1.149564133963
1	408	185.536258096079	0.722999014439
1	416	187.937570813189	1.874325079191
1	418	190.677070051415	3.218442914957
1	420	191.048863870463	3.30634083382
1	424	191.785694367696	0.127136336586
1	428	194.223334562369	0.735970093151
1	432	195.697782747488	0.595929852993
1	440	204.039423793739	2.275819250997
1	444	204.852639897539	2.758644457778
1	446	205.197824659362	2.066588068434
1	448	205.652149674847	1.16202077776
1	452	207.422300155425	1.527886141515
1	458	211.008530200581	2.955032180942
1	460	211.147809523362	1.344589551107
1	464	217.181863689757	1.082087576682
1	468	218.440026927833	0.178806513872
1	472	228.463662505656	0.369526842496
1	484	232.674500745903	3.400102686573
1	486	233.399721923404	4.022958456493
1	492	234.641649790046	5.002947811124
1	494	236.497346959857	5.539782269532
1	496	236.535016784944	4.596140073518
1	502	241.398460269523	7.903273572768
1	504	241.607434930702	7.078648046468
1	508	244.40245369969	7.547802006973
1	512	246.872959612419	5.636746987268
1	514	246.968316220477	4.575787815148
1	518	247.632679640742	2.193376137316
1	522	250.278388260506	2.77385064705
1	528	250.592936577726	2.903948588912
1	530	251.741346362625	1.349740935059
1	532	252.928927815816	2.452811550602
1	536	254.110633023314	0.268574057762
1	544	263.18579779954	3.064068788785
1	548	264.357859328002	3.043363148731
1	550	265.557140132283	3.23696882145
1	552	265.728177046899	1.646951328888
1	556	266.384686181583	0.553803519534
1	560	267.958574588497	0.267908088434
1	564	274.350559600256	0.917559870995
1	572	274.805603077867	0.447238213383
1	576	275.620821715335	1.209245360333
1	580	276.206300291937	1.431252555462
1	590	283.926011710079	8.781017552676
1	592	284.10578494133	8.107679521291
1	594	286.091028314547	9.610009932809
1	596	287.478779910054	7.83286767108
1	604	288.923541220661	8.513022103526
1	606	289.356566531918	5.808406097088
1	612	290.406664221242	2.012717008067
1	614	291.640092150804	3.131105726796
1	618	292.294113754167	3.377479782207
1	620	292.706021570279	3.260231064171
1	624	293.706912494779	4.228560424443
1	628	295.054268662602	3.042504810729
1	630	295.241384032988	2.462222653279
1	632	295.957565704185	2.190774437725
1	636	299.758872227518	2.076964732321
1	644	304.507049900239	2.926925703803
1	646	305.924888898037	3.235358752083
1	648	306.604207994803	2.789636603678
1	654	310.221598749422	0.917587259634
1	656	310.453745331315	1.063048916785
1	664	314.196510322982	3.127853750515
1	666	315.795785889546	4.401273263782
1	668	317.564095559108	5.100230227568
1	678	321.892478370731	0.771951159724
1	680	322.269192023236	1.136289874878
1	682	323.240636085509	1.673954571176
1	684	323.35281250013	1.611662469788
1	690	323.857448382863	0.229298259582
1	692	324.251259261118	0.486899052512
1	696	328.80401982382	0.696370344053
1	702	331.926451529142	2.106350364525
1	704	332.228920993102	0.50621162696
1	708	334.292151037947	0.755313632793
1	714	336.304043767764	1.857019140198
1	718	336.450879837358	1.699189892414
1	722	336.962078877722	0.527072233865
1	726	337.802532540836	1.177333523332
1	728	338.008378084019	0.515207866481
1	732	339.162387624181	0.013810862948
1	736	344.039787931032	0.89842394134
1	740	344.192200441961	0.015840026491
1	744	345.622197163222	0.881874144029
1	750	348.007224791396	0.525369038327
1	754	348.266804064282	0.338385675401
1	758	348.477381570049	0.264718736046
1	760	350.922716570665	2.617203765994
1	764	353.45753261189	0.892135756938
1	768	357.231098360453	0.187769584092
1	776	359.108950464636	1.253423877093
1	778	359.425472503074	0.743422000013
1	782	361.974023848937	3.044617309286
1	784	363.251549426806	3.777354341228
1	788	369.091835350327	1.12986452712
1	796	374.453235225734	4.328338371535
1	804	378.058021676216	7.264587872504
1	806	378.197795123145	3.754389917074
1	808	381.45558982503	5.460234591892
1	810	381.93589022376	4.564983399172
1	812	381.938097747983	4.378056492728
1	816	383.906564774276	1.77845929625
1	824	384.973294047444	0.814775126417
1	826	385.726748861738	1.376603287406
1	828	386.994162983552	2.360807951829
1	836	393.272711709268	3.172106917127
1	838	393.277323897291	2.886158784781
1	840	393.583705349314	2.544395420546
1	844	394.032370904429	0.145894974886
1	854	397.333951658955	2.318607271923
1	856	399.227321922223	3.680172741646
1	858	400.188076667149	4.637047393496
1	860	400.244961520216	3.242288806733
1	864	400.96074430886	0.562034707967
1	868	404.308556557085	0.230126709816
1	872	406.866139701848	2.044779700547
1	878	409.695029504993	1.184281258311
1	880	409.759492505924	0.81003263406
1	884	411.343454650228	0.953896703313
1	890	413.775778298314	1.828121181099
1	892	413.810144413701	1.057538192392
1	898	415.520062816244	0.948336499035
1	900	418.121284261675	2.617805598706
1	904	418.514125839144	0.164238985327
1	908	422.587003693425	1.30171930475
1	912	423.220543545238	0.163484902286
1	916	425.42619413838	1.832280498835
1	920	425.644471673398	0.201648435839
1	924	427.85267035225	0.496106784938
1	928	432.915139249598	0.446604462019
1	932	439.881737785802	0.507401761687
1	936	445.753048233934	4.627093982281
1	940	451.332039930001	0.221573017983
1	946	453.268187395488	0.460850940159
1	950	454.735232997225	1.833832166314
1	952	455.324868185426	1.569377774505
1	956	457.49890831555	0.812539478332
1	962	460.284490088144	1.443079453985
1	974	468.721869754508	9.741977187521
1	976	469.140384559595	6.677794437602
1	980	469.243282837762	6.217017251612
1	982	469.506542917458	3.073603096222
1	986	471.62234123573	4.88097857378
1	988	473.014897569627	5.117615390871
1	996	475.472651965289	6.306515418663
1	1000	477.244296631867	7.259178609903
1	1002	477.553829457329	4.069106637987
1	1004	478.222520019482	4.577284074999
1	1006	478.335434615182	3.397706202964
1	1012	479.07769352083	2.645836728136
1	1014	479.912854744493	1.244995294082
1	1016	480.321798908933	1.281913729133
1	1020	483.101196313897	0.145205469939
1	1024	485.13408603493	0.940832375098
1	1030	492.162163399952	1.079456793153
1	1036	495.935819654151	4.202071258261
1	1038	497.276866305836	3.240840632655
1	1042	498.784909034	4.54326503448
1	1044	501.647024062548	3.950944585512
1	1048	505.235140595279	0.508688983921
1	1052	508.567321894956	0.359877364203
1	1056	517.429481011949	1.181941305666
1	1060	519.898263932557	0.819619085718
1	1064	521.474429862411	0.725353724269
1	1068	523.159067128104	0.251927913128
1	1072	526.439262057199	1.049421991703
1	1076	530.972392080609	1.131269749814
1	1080	533.211380743008	0.488327157802
1	1084	536.402053180105	0.303015344315
1	1094	544.458044932981	6.693815770261
1	1096	544.638071211914	6.586241704964
1	1098	545.035484682308	4.754550275799
1	1100	546.564255297753	5.669140629541
1	1104	547.565284646328	0.65437255843
1	1114	552.027698991516	3.06439794586
1	1116	552.951608291425	3.396719373397
1	1118	553.027456809767	2.028888535865
1	1120	553.037013812423	1.136982546082
1	1124	554.758751068622	1.461791973982
1	1128	558.764756198095	3.378071687495
1	1132	563.60192199015	1.157719860166
1	1136	567.143504597201	1.81593497157
1	1140	568.418461955463	0.108723924534
1	1144	576.36480600706	1.552404312766
1	1148	578.074889120846	0.563170532448
1	1152	579.308353986847	0.192684610007
1	1156	583.123706717391	2.30636892474
1	1160	584.782696540435	1.087729905574
1	1164	586.693892239226	0.243009539185
1	1168	588.099857230396	0.310945101985
1	1172	589.114820242005	0.168759700619
1	1176	591.194267189174	1.058682411725
1	1180	592.920049390703	1.235638536577
1	1184	596.352955256281	0.064061541701
1	1196	601.617110603533	3.730919274276
1	1198	602.70166063132	4.592042062814
1	1204	604.288570698748	5.107413614624
1	1206	607.734280858345	7.834759682852
1	1210	608.958302076966	7.820547077739
1	1214	610.046836315034	6.769733514718
1	1218	610.699000502071	6.557732982138
1	1220	611.143692649519	2.842038415913
1	1224	611.564088448313	2.278618521042
1	1226	612.399684689999	1.821673766053
1	1228	613.339168562389	2.017885880457
1	1234	619.440297339661	1.944738125235
1	1236	621.564124385808	2.618702410743
1	1240	622.165788398564	0.197482834203
1	1244	626.250753467474	0.244428058014
1	1248	627.105241856907	0.036005092799
1	1252	632.234007038916	0.163093835141
1	1256	633.46780127898	0.122599670479
1	1260	636.671010480462	2.340129306862
1	1272	641.354309133622	3.918165029625
1	1274	641.596765788497	3.62181891318
1	1280	642.75099086252	3.968440120851
1	1284	642.9828849697	2.773994133735
1	1286	644.943628317594	4.390918196727
1	1292	645.522368636182	3.786929641475
1	1294	646.972909247063	4.283917555553
1	1300	648.56721415182	5.613306798575
1	1306	650.3062457407	4.951972356162
1	1308	650.705545748326	5.312738840902
1	1310	650.707062118751	3.181265861111
1	1312	650.943285938657	3.32647534409
1	1314	650.994381914622	1.787681171183
1	1318	652.542999470691	2.607888890968
1	1320	653.060819898276	0.539213489677
1	1326	654.620940650776	1.237413693362
1	1330	654.960077507414	1.19410238893
1	1332	655.297125474119	0.639547802214
1	1336	657.77479088971	0.405439118143
1	1340	659.455972150645	0.704058434845
1	1346	663.860288102561	2.548739114142
1	1350	665.139361596269	2.63211755512
1	1352	665.449910726565	0.697287140933
1	1356	667.080297745472	0.038158481722
1	1362	668.843269054297	0.58388859966
1	1364	669.185421509655	0.756973332879
1	1368	673.991385197786	1.477845548681
1	1374	674.820017030746	0.511822837216
1	1376	675.026090161253	0.54523364098
1	1382	678.453109531406	2.19208596945
1	1384	680.110375692342	2.292235699906
1	1388	683.459485392601	0.418775934958
1	1392	684.171695666135	0.339243824546
1	1396	689.186298337625	0.967301082998
1	1400	691.223963950948	1.474988719428
1	1404	692.554644128847	1.211037490132
1	1408	694.963923638366	2.113247956408
1	1414	698.585299272365	0.886255690742
1	1416	698.917186037671	1.01314128992
1	1422	705.229627854156	0.927345954593
1	1424	706.263420998291	1.189911066754
1	1428	706.612024979115	0.076604085659
1	1432	714.531538311203	0.103179048676
1	1436	716.42668458539	0.531873894216
1	1440	717.595605684755	0.412192381661
1	1444	720.656069374427	0.422634076072
1	1448	721.440574882066	0.679671773588
1	1452	722.783247720745	0.380228933044
1	1458	726.376036633113	0.219836681657
1	1460	726.953020163388	0.703060454678
1	1464	728.975201898882	0.210494419002
1	1472	730.556354665977	1.159118413824
1	1476	731.419001129217	1.740885637336
1	1478	731.484823882087	1.350867070929
1	1482	732.389379390837	1.246703319265
1	1484	732.54111975234	0.48816443216
1	1488	740.620361457709	1.047175202127
1	1492	742.307246330605	0.124389935639
1	1496	744.107387186479	1.677770786678
1	1500	744.971404137638	0.642007252395
1	1504	748.012857097847	0.077007820132
1	1510	752.976631273279	0.572026557585
1	1512	753.661440060162	0.915615135549
1	1516	757.283696677584	0.555182288858
1	1520	759.08236953751	0.106211066233
1	1528	762.12730253154	2.766755827852
1	1532	763.806161638345	3.002693743267
1	1534	763.881106072557	1.94717300241
1	1536	767.974913432981	4.834684629365
1	1540	768.606433337048	0.54116119553
1	1548	772.549084975174	3.014024841512
1	1552	773.38739774443	1.322594278564
1	1560	775.714090675945	3.361288438421
1	1562	777.510724377263	4.153661828783
1	1564	777.86883294772	3.480957522878
1	1566	778.049275475951	3.461742806598
1	1570	778.964814098156	4.068309898071
1	1574	779.871190753746	1.517514979777
1	1576	780.531969346331	1.190892615717
1	1580	781.677491384721	0.028246857229
1	1586	783.41365263254	0.351353428386
1	1588	785.800588820691	2.658271839662
1	1594	792.280935457961	0.774233666335
1	1596	792.438814458556	0.578346793028
1	1600	795.434112891702	0.164405203727
1	1604	798.242495547756	0.519715706781
1	1610	803.627514692727	0.141307480972
1	1616	805.272864465574	1.759368282288
1	1618	806.075757946703	1.204170639327
1	1622	806.301350238144	1.317038712423
1	1624	806.535785332127	0.396673284615
1	1628	808.469587701673	0.032535058088
1	1632	809.78266180598	1.209067446194
1	1640	812.215624657477	1.213227099407
1	1642	812.540201980516	1.375239307438
1	1648	815.45968133767	4.012105391577
1	1652	815.991121916242	1.58191332305
1	1654	817.838281607612	3.294554180207
1	1656	818.088523458917	2.205933195173
1	1666	824.205958268708	2.280091663817
1	1668	824.208227372289	2.153192928797