version 3
run General-3-20221027-10:37:26-16912
attr configname General
attr datetime 20221027-10:37:26
attr datetimef 20221027-103726
attr experiment General
attr inifile simu_1.ini
attr iterationvars ""
attr iterationvarsd ""
attr iterationvarsf ""
attr measurement ""
attr network Rete
attr processid 16912
attr repetition 3
attr replication #3
attr resultdir results
attr runnumber 3
attr seedset 3
config network Rete
config record-eventlog false
config repeat 10
config sim-time-limit 1000s
config simtime-resolution ps
config **.Servente.serviceTime exponential(1s)
config **.Arrivi.interArrivalTime exponential(2s)

vector 0 Rete.Servente queueLength:vector ETV
attr interpolationmode sample-hold
attr recordingmode vector
attr title "queue length"
vector 1 Rete.Pozzo lifeTime:vector ETV
attr interpolationmode none
attr recordingmode vector
attr title "lifetime of arrived jobs"
attr unit s
0	0	0	0
0	4	1.747265657714	1
0	5	2.832072627027	0
0	12	5.670480238398	1
0	13	6.126832012774	0
0	16	7.355219804859	1
0	17	8.361262859033	0
0	20	8.504391154482	1
0	22	8.542243118769	2
0	24	8.81064421679	3
0	26	8.89360267426	4
0	28	9.358079439198	5
0	30	9.927820301461	6
0	32	10.033498136818	7
0	34	10.229940251692	8
0	35	10.627449401297	7
0	38	11.392471615801	8
0	40	11.453134815281	9
0	42	11.767308464773	10
0	43	11.814314897512	9
0	45	12.41793641372	8
0	48	12.987986195963	9
0	49	13.465315956884	8
0	52	13.473599954193	9
0	53	13.791721233371	8
0	56	14.347217634237	9
0	57	14.91952004519	8
0	60	15.704270491805	9
0	61	15.813224799133	8
0	63	15.83749892957	7
0	65	17.289191379124	6
0	67	18.107570964733	5
0	70	20.594906794853	6
0	72	21.195097581538	7
0	73	21.743792356374	6
0	76	22.224633157089	7
0	77	22.280108787962	6
0	79	22.613520832488	5
0	81	22.979323921552	4
0	84	23.834006421419	5
0	85	24.160680803174	4
0	87	24.741309845773	3
0	89	25.062783279508	2
0	91	25.233414721544	1
0	94	25.600782310437	2
0	95	25.839664767395	1
0	98	27.174155823581	2
0	99	27.257099993269	1
0	101	28.958492721295	0
0	116	37.806731326857	1
0	118	37.848391220595	2
0	119	38.026924395132	1
0	121	38.180911972739	0
0	128	46.094405721776	1
0	129	47.638748626182	0
0	132	49.404628195424	1
0	133	49.507934898871	0
0	156	58.238060315243	1
0	157	58.446244952451	0
0	176	65.745448257651	1
0	177	65.902668044657	0
0	180	67.865948602195	1
0	181	67.872601846803	0
0	200	78.564427625364	1
0	201	78.638001265995	0
0	208	81.555274697533	1
0	209	82.145105693456	0
0	224	89.673648465848	1
0	225	90.003675767942	0
0	228	91.125380237892	1
0	229	91.377038987771	0
0	232	92.34789601186	1
0	233	92.551753753913	0
0	272	112.314579505401	1
0	273	112.585672355617	0
0	280	113.12732831827	1
0	281	114.260380363451	0
0	284	114.444610378139	1
0	286	114.497352265125	2
0	287	115.311565879074	1
0	289	116.015923781222	0
0	332	143.623045076979	1
0	334	145.814027052502	2
0	335	146.481859864273	1
0	337	146.881697871146	0
0	344	149.000733756427	1
0	345	149.33119395964	0
0	352	151.600129473299	1
0	353	153.107843214453	0
0	372	165.066597540928	1
0	373	165.570782705906	0
0	404	186.2160546495	1
0	406	186.669548842519	2
0	407	186.977134571816	1
0	410	189.743194587339	2
0	411	190.155258011636	1
0	413	191.608345192087	0
0	420	197.318462089074	1
0	421	197.685707500965	0
0	432	200.360687256007	1
0	434	201.069490469597	2
0	435	202.612531768693	1
0	437	202.925610050523	0
0	460	214.344672953453	1
0	462	214.601743296972	2
0	463	214.692543260884	1
0	465	214.732238908447	0
0	484	239.742934231464	1
0	486	240.3229478047	2
0	487	240.407192898953	1
0	490	242.429018168575	2
0	491	242.687400537673	1
0	494	243.732945337173	2
0	496	244.375507191885	3
0	497	244.490704249407	2
0	500	244.691896067053	3
0	501	245.54689841766	2
0	503	248.680732780864	1
0	505	249.12036875638	0
0	528	263.115827184999	1
0	529	263.40119234617	0
0	544	289.159684906864	1
0	545	289.994101128734	0
0	548	290.431956168985	1
0	549	292.253342571404	0
0	576	306.198604771143	1
0	578	306.93402954626	2
0	579	307.215746959571	1
0	581	308.038971543894	0
0	592	315.864366051509	1
0	594	316.905777878642	2
0	595	316.962135308044	1
0	598	317.206184802167	2
0	599	317.735329861671	1
0	602	317.959412804003	2
0	603	318.783933467693	1
0	606	319.047428918205	2
0	607	319.154941548728	1
0	609	320.996020083947	0
0	616	324.615019940689	1
0	617	325.363325453293	0
0	624	329.319953309553	1
0	625	330.610275545728	0
0	644	348.015899004419	1
0	646	348.239822907423	2
0	648	350.639850890979	3
0	649	350.654345464064	2
0	651	351.313085495319	1
0	654	351.314447605907	2
0	656	351.99113492053	3
0	658	352.535897833524	4
0	659	352.56346720546	3
0	661	353.759689007788	2
0	663	355.81681746239	1
0	665	355.842676825033	0
0	676	362.301970065213	1
0	677	363.182129533112	0
0	692	370.435781313637	1
0	693	370.472803094445	0
0	712	380.835299748907	1
0	713	381.367741397595	0
0	720	382.106853392402	1
0	722	383.262931767207	2
0	723	385.244340671596	1
0	726	386.043755881403	2
0	728	386.884184141427	3
0	729	387.17007032947	2
0	731	390.136780801518	1
0	733	391.410286743676	0
0	740	394.91517721455	1
0	742	395.214908824976	2
0	744	395.308038454544	3
0	746	395.352725621398	4
0	748	395.467224554598	5
0	749	395.695696547178	4
0	752	395.970249700767	5
0	754	396.852679951019	6
0	755	397.05335397844	5
0	758	397.579464656028	6
0	759	398.580095156499	5
0	762	399.034049217263	6
0	763	399.176844010044	5
0	766	399.373876747355	6
0	767	399.824887363641	5
0	769	400.551148307324	4
0	771	401.249812775609	3
0	773	401.709438862522	2
0	775	403.475536884542	1
0	777	403.779927568901	0
0	792	415.766948209398	1
0	793	417.027232872806	0
0	808	421.95339569795	1
0	809	422.248517723503	0
0	864	454.073816766479	1
0	865	454.289344770472	0
0	868	454.602004097002	1
0	870	454.627679179111	2
0	872	454.629170775645	3
0	873	454.942324208082	2
0	875	454.973104454409	1
0	878	455.271338189876	2
0	880	456.509452606754	3
0	882	457.157502821426	4
0	884	457.512220265186	5
0	886	457.66984830121	6
0	887	457.818941320948	5
0	889	458.13963177975	4
0	891	459.725375554417	3
0	894	459.945605587501	4
0	896	461.671879897498	5
0	898	462.770404500488	6
0	899	463.995957466014	5
0	902	465.143750940449	6
0	903	465.30588184335	5
0	906	466.135487092446	6
0	908	466.230291380046	7
0	909	466.260886003053	6
0	912	466.628999753523	7
0	913	466.839672044957	6
0	915	467.304855804012	5
0	917	467.759744910693	4
0	919	468.668571670117	3
0	922	469.352823141539	4
0	924	469.641067799615	5
0	925	470.168088635738	4
0	927	470.426487540112	3
0	929	471.432438981751	2
0	932	472.794260867202	3
0	933	473.118662984358	2
0	935	473.425630533	1
0	937	474.441887692215	0
0	944	477.783041761497	1
0	946	477.783999621875	2
0	947	478.402281183	1
0	950	478.428691482512	2
0	952	478.742677483031	3
0	954	479.136018712348	4
0	955	479.160421666233	3
0	957	480.62633815307	2
0	959	481.463509412138	1
0	961	481.488853151249	0
0	964	481.557477372088	1
0	966	481.69375645173	2
0	968	481.779635867979	3
0	969	482.434556824869	2
0	972	482.569469756362	3
0	973	482.97458282111	2
0	975	482.978858388973	1
0	977	483.084861013803	0
0	992	489.092076082907	1
0	993	489.295262166429	0
0	996	492.743578364693	1
0	997	493.727550969701	0
0	1000	495.087726849687	1
0	1002	495.352865038523	2
0	1004	496.667832105024	3
0	1005	497.275703253052	2
0	1008	498.193233673344	3
0	1009	498.606348691646	2
0	1011	499.607804604651	1
0	1013	500.5684251069	0
0	1044	525.194060771628	1
0	1045	525.560975551326	0
0	1064	534.520765601969	1
0	1065	534.80574900256	0
0	1068	536.19194581604	1
0	1070	536.246753729205	2
0	1071	536.85749402122	1
0	1073	536.91192382972	0
0	1088	548.39690294186	1
0	1089	548.77422884263	0
0	1092	548.810830731727	1
0	1093	548.832782717975	0
0	1112	561.648986570182	1
0	1113	562.157767285673	0
0	1128	571.04383205653	1
0	1130	571.571200526807	2
0	1131	571.688391500582	1
0	1133	573.955696196098	0
0	1136	574.681406269272	1
0	1137	576.216559163036	0
0	1144	578.482906279135	1
0	1145	579.923059582522	0
0	1156	593.2030746917	1
0	1157	593.925435837933	0
0	1192	615.586566844142	1
0	1194	616.22294136373	2
0	1195	616.620950578435	1
0	1197	617.612078418243	0
0	1200	619.352388513204	1
0	1202	621.169552614438	2
0	1204	621.345206600989	3
0	1205	621.668404473667	2
0	1207	622.665938101968	1
0	1209	623.625438362063	0
0	1224	634.415770055307	1
0	1225	634.45514767146	0
0	1228	635.490106552129	1
0	1229	636.484311637214	0
0	1236	637.577629129155	1
0	1237	637.948829053495	0
0	1256	649.156460660813	1
0	1257	649.193699961894	0
0	1272	655.107951878747	1
0	1273	655.474439332412	0
0	1276	656.012516848146	1
0	1277	656.318893807902	0
0	1280	656.606749982271	1
0	1281	658.05594452514	0
0	1284	658.476391365616	1
0	1285	658.722861122369	0
0	1312	681.380587612792	1
0	1313	682.803842159581	0
0	1316	684.151740427103	1
0	1317	684.272018028233	0
0	1324	684.719961829124	1
0	1326	684.893414789687	2
0	1327	685.471117223384	1
0	1329	686.174687473523	0
0	1348	701.092085090878	1
0	1350	702.101315572686	2
0	1351	702.309823324676	1
0	1353	702.798027248656	0
0	1356	703.805232288366	1
0	1357	704.113697927834	0
0	1360	704.632163449166	1
0	1361	704.91405755768	0
0	1364	706.12907690074	1
0	1366	707.65141010369	2
0	1367	707.717575361954	1
0	1369	708.491076836565	0
0	1372	708.501934773836	1
0	1373	709.345495393948	0
0	1388	713.996843169795	1
0	1390	715.064414194108	2
0	1391	718.008328752108	1
0	1393	720.467330691062	0
0	1412	730.173768075826	1
0	1414	731.012934474801	2
0	1415	731.288625997599	1
0	1417	731.294701458287	0
0	1424	732.687982816299	1
0	1425	733.207986172742	0
0	1436	743.507621063564	1
0	1437	748.803662112764	0
0	1448	760.255420151353	1
0	1449	760.301310088077	0
0	1452	760.754070933029	1
0	1453	762.832923759802	0
0	1476	773.746108768449	1
0	1478	774.116604371201	2
0	1479	774.122742803189	1
0	1482	774.161569854918	2
0	1483	774.483511191088	1
0	1485	774.521355284401	0
0	1500	792.258978630644	1
0	1501	792.347987799519	0
0	1524	803.572078664429	1
0	1526	804.251362221207	2
0	1528	804.27770050872	3
0	1530	804.333753933462	4
0	1531	804.58494449854	3
0	1533	804.693627095086	2
0	1535	805.039301029074	1
0	1537	805.657144131016	0
0	1544	809.632923883145	1
0	1546	811.558076865608	2
0	1547	812.520684512068	1
0	1550	812.705876586566	2
0	1551	814.717235558876	1
0	1554	815.222607673289	2
0	1555	815.930846690097	1
0	1557	815.975840140286	0
0	1560	816.285966708016	1
0	1562	816.62517092826	2
0	1563	818.423865101904	1
0	1565	818.553515242519	0
0	1568	819.167466338972	1
0	1569	819.208772950493	0
0	1596	833.840368466812	1
0	1597	834.432002822431	0
0	1608	837.657258449059	1
0	1610	838.247894923124	2
0	1611	838.83924183239	1
0	1613	839.006868436545	0
0	1636	855.717487197152	1
0	1638	856.479079385628	2
0	1639	857.985998500338	1
0	1641	858.062537985166	0
0	1652	863.446025927493	1
0	1654	863.633751798384	2
0	1655	864.133721975104	1
0	1657	864.328039321665	0
0	1684	877.467150997525	1
0	1685	877.993331948308	0
0	1688	878.650641166073	1
0	1690	878.855382205371	2
0	1692	879.197515702474	3
0	1693	881.193242417895	2
0	1695	881.221944480944	1
0	1697	881.262552074562	0
0	1708	889.076073108999	1
0	1710	889.274560717826	2
0	1712	889.400542701973	3
0	1713	889.44462412274	2
0	1715	889.640353099875	1
0	1717	889.954010660666	0
0	1724	896.115476762156	1
0	1725	896.291121637192	0
0	1728	896.905992253929	1
0	1730	897.685473144675	2
0	1731	898.211245680418	1
0	1733	901.419312627148	0
0	1748	907.102791958721	1
0	1749	907.495799292294	0
0	1756	910.602435974121	1
0	1758	911.994181260724	2
0	1759	912.813042170805	1
0	1762	913.948587923458	2
0	1764	914.254623229943	3
0	1765	915.895379324442	2
0	1768	916.760765252069	3
0	1769	917.091808804598	2
0	1772	917.134896693864	3
0	1774	919.299778989003	4
0	1775	920.466060101194	3
0	1777	921.330619245406	2
0	1779	922.147073884904	1
0	1781	922.481639177727	0
0	1792	928.695104118154	1
0	1793	930.190530684123	0
0	1804	934.391388970966	1
0	1805	934.513514314177	0
0	1808	935.095035066402	1
0	1809	935.878457287489	0
0	1816	937.61635146183	1
0	1817	938.650609491458	0
0	1844	948.345179100501	1
0	1846	948.469697835319	2
0	1848	948.848974669062	3
0	1849	949.560624195233	2
0	1851	951.094261303791	1
0	1853	952.187072407617	0
0	1856	952.767420408589	1
0	1858	952.833972589838	2
0	1860	953.014956113057	3
0	1861	953.81730557277	2
0	1863	954.388919563787	1
0	1865	954.74215960864	0
0	1876	967.225206142379	1
0	1878	969.067213545766	2
0	1879	969.117348786815	1
0	1881	969.718400010422	0
0	1884	970.022386168683	1
0	1885	970.708107004132	0
0	1896	977.313064252375	1
0	1897	978.514244057291	0
1	6	2.832072627027	1.231507845242
1	8	3.175838035324	1.42857237761
1	14	6.126832012774	0.715040297358
1	18	8.361262859033	2.690782620635
1	36	10.627449401297	3.272229596438
1	44	11.814314897512	3.30992374303
1	46	12.41793641372	3.875693294951
1	50	13.465315956884	4.654671740094
1	54	13.791721233371	4.898118559111
1	58	14.91952004519	5.561440605992
1	62	15.813224799133	5.885404497672
1	64	15.83749892957	5.804000792752
1	66	17.289191379124	7.059251127432
1	68	18.107570964733	6.715099348932
1	74	21.743792356374	10.290657541093
1	78	22.280108787962	10.512800323189
1	80	22.613520832488	9.625534636525
1	82	22.979323921552	9.505723967359
1	86	24.160680803174	9.813463168937
1	88	24.741309845773	9.037039353968
1	90	25.062783279508	4.467876484655
1	92	25.233414721544	4.038317140006
1	96	25.839664767395	3.615031610306
1	100	27.257099993269	3.42309357185
1	102	28.958492721295	3.357710410858
1	104	29.324299997792	2.150144174211
1	108	30.456249432663	0.250974622931
1	112	31.291945413665	0.490976032037
1	120	38.026924395132	2.754884812833
1	122	38.180911972739	0.374180645882
1	124	39.296824079895	1.4484328593
1	130	47.638748626182	2.33133547796
1	134	49.507934898871	3.413529177095
1	136	49.98274051182	0.578112316396
1	140	50.519668716748	0.09674992826
1	144	52.588267001003	1.059615345613
1	148	53.41264793945	0.816085198942
1	152	56.139524902831	0.448735038761
1	158	58.446244952451	0.254962578192
1	160	58.96799657662	0.729936261377
1	164	59.629855325443	0.632880731968
1	168	60.965230989667	0.313664142347
1	172	63.754487653755	0.345018535189
1	178	65.902668044657	0.611910843721
1	182	67.872601846803	2.127153589152
1	184	68.755102212298	0.889153610103
1	188	70.372792331977	0.33336008919
1	192	74.462134358308	0.32569898987
1	196	78.077139766839	0.606276297435
1	202	78.638001265995	0.229929448652
1	204	78.862869696926	0.298442071562
1	210	82.145105693456	0.721618784811
1	212	82.236376347478	0.681101649945
1	216	85.89434025734	0.660845605724
1	220	88.042618359052	0.44969323474
1	226	90.003675767942	1.22992884679
1	230	91.377038987771	1.703390521923
1	234	92.551753753913	1.426373516021
1	236	93.720296406479	1.372400394619
1	240	96.119958973855	0.46776632395
1	244	97.5156459471	1.103026431823
1	248	100.540976545033	0.415286173111
1	252	102.320090649924	0.850488631833
1	256	103.417418768461	0.394239097613
1	260	107.111100849256	0.589048554217
1	264	108.060189826189	0.063503247949
1	268	108.582349851139	0.27796334799
1	274	112.585672355617	3.561458017652
1	276	112.847796117793	0.533216612392
1	282	114.260380363451	1.175960536126
1	288	115.311565879074	2.184237560804
1	290	116.015923781222	1.571313403083
1	292	116.660449586311	2.163097321186
1	296	117.979604866982	0.907984765821
1	300	122.143741858089	0.069317305492
1	304	122.613532742152	0.075329481231
1	308	127.96023899975	0.221864401298
1	312	128.552671279606	0.164710732871
1	316	128.88075727594	0.105476460243
1	320	138.185235423975	0.138450745046
1	324	141.212143121794	0.805818200529
1	328	143.404134497053	0.208026916767
1	336	146.481859864273	3.038665767739
1	338	146.881697871146	3.258652794167
1	340	147.660445802046	1.846418749544
1	346	149.33119395964	1.22819925151
1	348	149.637565151243	0.636831394816
1	354	153.107843214453	2.613545136204
1	356	154.935393978808	3.335264505509
1	360	156.323085369936	1.295793904602
1	364	157.375604129558	0.654388021371
1	368	162.826155272518	1.84581354745
1	374	165.570782705906	1.365520923859
1	376	166.650551363774	1.583953822846
1	380	170.483027414021	2.453120373896
1	384	173.570418407059	1.004208613423
1	388	176.102862281412	0.455612614111
1	392	177.118594225506	0.80484903506
1	396	180.804964844765	0.21862947728
1	400	182.376216328136	0.213282700926
1	408	186.977134571816	1.293422148988
1	412	190.155258011636	3.939203362136
1	414	191.608345192087	4.938796349568
1	416	193.511962385918	3.768767798579
1	422	197.685707500965	0.784373237431
1	424	197.779788391061	0.461326301987
1	428	199.257023000552	0.671137675281
1	436	202.612531768693	2.630205522647
1	438	202.925610050523	2.564922794516
1	440	203.589381403647	2.51989093405
1	444	204.775712032436	0.607482198728
1	448	208.773044852106	0.245882340736
1	452	210.121578994557	0.195058388679
1	456	211.701370171639	0.076474717262
1	464	214.692543260884	2.229271364449
1	466	214.732238908447	0.387565954994
1	468	214.886944108845	0.285200811873
1	472	217.180679374387	0.534652101963
1	476	237.927108343598	0.050355760371
1	480	238.735488791527	0.234929419551
1	488	240.407192898953	1.311959454932
1	492	242.687400537673	2.944466306209
1	498	244.490704249407	4.167756444707
1	502	245.54689841766	3.117880249085
1	504	248.680732780864	4.947787443691
1	506	249.12036875638	4.744861564495
1	508	249.69222006005	5.000323992997
1	512	255.546867524922	0.072713184645
1	516	257.117923012131	0.059465000213
1	520	258.498786774724	0.08650715655
1	524	261.901600833534	3.211582250651
1	530	263.40119234617	0.77818414885
1	532	265.218038437959	2.10221125296
1	536	266.78050913722	0.186369989061
1	540	279.630209119114	0.3015715176
1	546	289.994101128734	1.177582476157
1	550	292.253342571404	3.09365766454
1	552	292.66990171709	2.237945548105
1	556	292.956928402322	0.066859284843
1	560	295.71709866505	1.995980704543
1	564	296.451233203328	0.343719861104
1	568	300.218649634539	1.35124541854
1	572	302.436344206996	0.172015242791
1	580	307.215746959571	1.18732363558
1	582	308.038971543894	1.840366772751
1	584	309.337812223651	2.403782677391
1	588	311.061910477404	0.444893588155
1	596	316.962135308044	1.297147698714
1	600	317.735329861671	1.870963810162
1	604	318.783933467693	1.878155589051
1	608	319.154941548728	1.948756746561
1	610	320.996020083947	3.036607279944
1	612	321.162948965949	2.115520047744
1	618	325.363325453293	2.121303985314
1	620	326.967598306603	2.352578365914
1	626	330.610275545728	3.562221965682
1	628	331.068671577123	1.74871826757
1	632	331.502453231657	0.229337405371
1	636	343.798203705102	0.275187541475
1	640	345.63034648578	1.759463470645
1	650	350.654345464064	3.358947091241
1	652	351.313085495319	3.2971864909
1	660	352.56346720546	4.323644298037
1	662	353.759689007788	3.119838116809
1	664	355.81681746239	4.502369856483
1	666	355.842676825033	3.851541904503
1	668	355.939332659342	3.403434825818
1	672	356.366957722669	0.243281807622
1	678	363.182129533112	1.782370225569
1	680	365.068005607739	2.766035542526
1	684	365.899249234963	0.377829991286
1	688	368.391705073858	0.327524825996
1	694	370.472803094445	0.563549798767
1	696	371.248129349728	0.812348036091
1	700	371.708719510205	0.100446846672
1	704	375.482197919564	1.813466167977
1	708	377.48392589927	0.765147865499
1	714	381.367741397595	1.49151185614
1	716	381.630192814021	0.794893065114
1	724	385.244340671596	3.360824026128
1	730	387.17007032947	5.063216937068
1	732	390.136780801518	6.873849034311
1	734	391.410286743676	5.366530862273
1	736	392.615966941546	5.731782800119
1	750	395.695696547178	1.836094449984
1	756	397.05335397844	2.13817676389
1	760	398.580095156499	3.365186331523
1	764	399.176844010044	3.8688055555
1	768	399.824887363641	4.472161742243
1	770	400.551148307324	5.083923752726
1	772	401.249812775609	5.279563074842
1	774	401.709438862522	4.856758911503
1	776	403.475536884542	5.896072228514
1	778	403.779927568901	4.745878351638
1	780	403.856849429608	4.482972682253
1	784	407.654823919749	0.651842958597
1	788	410.314641653834	0.06430332627
1	794	417.027232872806	2.156248536568
1	796	417.617480885691	1.850532676293
1	800	420.147406355146	0.071012683973
1	804	420.886907641872	0.079580451987
1	810	422.248517723503	0.77390758024
1	812	422.327091780704	0.373696082754
1	816	423.246831149389	0.203061938391
1	820	423.886043900161	0.573334360545
1	824	433.903400002043	0.68872264821
1	828	435.226772138934	0.875417320543
1	832	437.238191117777	0.968934100394
1	836	444.469602025877	0.466508150743
1	840	445.661810981658	0.964264760878
1	844	446.080039788329	0.17107858043
1	848	447.246696995272	0.32228521376
1	852	451.635365135112	1.603049719344
1	856	452.120289134559	0.166160023607
1	860	453.997513851439	0.252730687846
1	866	454.289344770472	0.278363206039
1	874	454.942324208082	0.868507441603
1	876	454.973104454409	0.371100357407
1	888	457.818941320948	3.191262141837
1	890	458.13963177975	3.510461004105
1	892	459.725375554417	4.454037364541
1	900	463.995957466014	7.48650485926
1	904	465.30588184335	8.148379021924
1	910	466.260886003053	8.748665737867
1	914	466.839672044957	9.169823743747
1	916	467.304855804012	7.359250216511
1	918	467.759744910693	6.087865013195
1	920	468.668571670117	5.898167169629
1	926	470.168088635738	5.024337695289
1	928	470.426487540112	4.291000447666
1	930	471.432438981751	5.202147601705
1	934	473.118662984358	6.489663230835
1	936	473.425630533	4.072807391461
1	938	474.441887692215	4.8008198926
1	940	474.970063305373	2.175802438171
1	948	478.402281183	2.748437591423
1	956	479.160421666233	1.377379904736
1	958	480.62633815307	2.842338531195
1	960	481.463509412138	3.034817929626
1	962	481.488853151249	2.746175668218
1	970	482.434556824869	3.298538112521
1	974	482.97458282111	1.417105449022
1	976	482.978858388973	1.285101937243
1	978	483.084861013803	1.305225145824
1	980	483.367934346098	0.798464589736
1	984	485.547640354198	1.224366625278
1	988	485.78079211004	0.063515811347
1	994	489.295262166429	0.349122808692
1	998	493.727550969701	4.635474886794
1	1006	497.275703253052	4.532124888359
1	1010	498.606348691646	3.518621841959
1	1012	499.607804604651	4.254939566128
1	1014	500.5684251069	3.900593001876
1	1016	501.195209935182	3.001976261838
1	1020	503.860146262446	1.945375311316
1	1024	512.517449284955	0.189368224185
1	1028	514.904336970059	1.762775152581
1	1032	516.903877300905	0.042980071601
1	1036	519.920640669349	2.017058019909
1	1040	522.915071859497	1.127001235494
1	1046	525.560975551326	0.590435568876
1	1048	526.674407862037	1.480347090409
1	1052	528.324123660364	0.616868783398
1	1056	532.763782543481	1.514142380028
1	1060	533.384524847156	0.120411082621
1	1066	534.80574900256	0.709596596176
1	1072	536.85749402122	2.336728419251
1	1074	536.91192382972	0.71997801368
1	1076	537.160816475669	0.914062746464
1	1080	541.786158074938	0.290259124971
1	1084	547.228003783658	2.343537031017
1	1090	548.77422884263	0.423910185177
1	1094	548.832782717975	0.435879776115
1	1096	550.087651237627	1.2768205059
1	1100	551.589724920244	0.535150524114
1	1104	557.163555566111	1.329249534003
1	1108	558.999623584651	0.648349048376
1	1114	562.157767285673	0.694278923182
1	1116	562.698299664726	1.049313094544
1	1120	563.121732104962	0.343173487715
1	1124	570.003960836251	2.309719211136
1	1132	571.688391500582	1.104995355718
1	1134	573.955696196098	2.911864139568
1	1138	576.216559163036	4.645358636229
1	1140	576.504493187187	1.823086917915
1	1146	579.923059582522	2.523488773474
1	1148	581.907955488697	3.425049209562
1	1152	586.561550117045	0.705392376415
1	1158	593.925435837933	0.83910326479
1	1160	594.047526901171	0.844452209471
1	1164	596.191547912463	1.43597145866
1	1168	598.925024357777	0.190222696055
1	1172	601.293320419797	0.763217858136
1	1176	605.212565999301	0.135175371391
1	1180	606.742701033147	0.075712277896
1	1184	611.299482996988	0.939117905152
1	1188	613.04064330907	0.675706421431
1	1196	616.620950578435	1.123345455899
1	1198	617.612078418243	2.025511574101
1	1206	621.668404473667	5.445463109937
1	1208	622.665938101968	3.313549588764
1	1210	623.625438362063	2.455885747625
1	1212	624.485762114077	3.140555513088
1	1216	630.523111773842	1.051658586815
1	1220	631.94814693915	0.783464641102
1	1226	634.45514767146	0.815015173233
1	1230	636.484311637214	2.068541581907
1	1232	637.085812836694	1.595706284565
1	1238	637.948829053495	0.765665357514
1	1240	639.123125598637	1.545496469482
1	1244	640.074353257936	0.093755883187
1	1248	641.741188120525	0.565502385229
1	1252	642.346943841531	0.107734694149
1	1258	649.193699961894	0.148279490736
1	1260	649.195827784876	0.039367124063
1	1264	651.95526364439	0.235350807149
1	1268	653.941932140123	0.244159431552
1	1274	655.474439332412	0.726175625612
1	1278	656.318893807902	1.210941929155
1	1282	658.05594452514	2.043427676994
1	1286	658.722861122369	2.116111140098
1	1288	660.943447829366	2.46705646375
1	1292	665.227202791281	0.502627304961
1	1296	670.371057855892	1.364969147078
1	1300	671.77511426686	0.804653779717
1	1304	674.168313664758	0.977701040273
1	1308	678.055038742081	0.315247875338
1	1314	682.803842159581	2.77410999467
1	1318	684.272018028233	2.891430415441
1	1320	684.429368022539	0.277627595436
1	1328	685.471117223384	0.770966843037
1	1330	686.174687473523	1.454725644399
1	1332	686.224987923119	1.331573133432
1	1336	696.192958684516	0.360711414283
1	1340	698.540356310471	1.35020690518
1	1344	699.266014191518	0.040157057577
1	1352	702.309823324676	1.373066612126
1	1354	702.798027248656	1.705942157778
1	1358	704.113697927834	2.012382355148
1	1362	704.91405755768	1.108825269314
1	1368	707.717575361954	3.085411912788
1	1370	708.491076836565	2.361999935825
1	1374	709.345495393948	1.694085290258
1	1376	709.397610058766	0.89567528493
1	1380	711.83999207243	0.806165464521
1	1384	712.631327020813	0.543681083081
1	1392	718.008328752108	4.084104449684
1	1394	720.467330691062	6.470487521267
1	1396	720.616154899223	5.551740705115
1	1400	720.929971871024	0.042506370181
1	1404	725.456670064169	0.128600790612
1	1408	729.41180619842	0.21411812061
1	1416	731.288625997599	1.295240487932
1	1418	731.294701458287	1.120933382461
1	1420	732.060258778371	1.04732430357
1	1426	733.207986172742	0.624623443703
1	1428	733.214702898836	0.526720082537
1	1432	739.408373359374	0.498356873033
1	1438	748.803662112764	6.848015202524
1	1440	750.520079632281	7.012458568717
1	1444	756.540861156199	0.850645113614
1	1450	760.301310088077	0.218732004059
1	1454	762.832923759802	2.577503608449
1	1456	763.384827049315	2.630756116286
1	1460	765.529021407253	0.965815249872
1	1464	769.099968652199	0.227035689333
1	1468	770.582861618857	0.397594774354
1	1472	771.123797322872	0.42304900049
1	1480	774.122742803189	0.502116779462
1	1484	774.483511191088	0.737402422639
1	1486	774.521355284401	0.4047509132
1	1488	774.70767283561	0.546102980692
1	1492	777.245807341902	0.924575613696
1	1496	790.098134130551	0.966480279726
1	1502	792.347987799519	1.197012905526
1	1504	792.693201789501	0.434223158857
1	1508	793.716557282524	0.345356361231
1	1512	796.262371650774	1.408660529206
1	1516	798.039194512296	0.491389399836
1	1520	801.221311594663	0.165421090585
1	1532	804.58494449854	2.356670713849
1	1534	804.693627095086	1.121548430657
1	1536	805.039301029074	0.787938807867
1	1538	805.657144131016	1.379443622296
1	1540	806.138127885588	1.804373952126
1	1548	812.520684512068	3.835300370258
1	1552	814.717235558876	5.084311675731
1	1556	815.930846690097	4.372769824489
1	1558	815.975840140286	3.26996355372
1	1564	818.423865101904	3.201257428615
1	1566	818.553515242519	2.267548534503
1	1570	819.208772950493	2.583602022233
1	1572	819.296753870989	0.129287532017
1	1576	822.109415173783	0.451981198825
1	1580	823.272174879375	0.674534865733
1	1584	824.590934027021	0.333885437727
1	1588	830.358350530678	0.764945066517
1	1592	832.711623374904	0.235280752138
1	1598	834.432002822431	0.681870149418
1	1600	835.18279012538	1.342421658568
1	1604	836.395880541205	1.118895541783
1	1612	838.83924183239	1.367927443086
1	1614	839.006868436545	1.349609987486
1	1616	839.558717290673	1.310822367549
1	1620	841.475085517011	0.608718406482
1	1624	844.51062664591	2.067569114842
1	1628	849.208856218304	0.450652746187
1	1632	851.699832381191	1.339536080218
1	1640	857.985998500338	5.12726492696
1	1642	858.062537985166	2.345050788014
1	1644	858.859351261686	2.380271876058
1	1648	862.018514240478	0.364003714053
1	1656	864.133721975104	0.97368851573
1	1658	864.328039321665	0.882013394172
1	1660	865.076619420884	1.4428676225
1	1664	866.357443423652	0.417755273205
1	1668	868.363202057855	0.607752489796
1	1672	869.456567590865	0.085329961657
1	1676	871.969580570774	0.344297864001
1	1680	874.182636689995	0.156533066483
1	1686	877.993331948308	1.098054628766
1	1694	881.193242417895	3.72609142037
1	1696	881.221944480944	2.571303314871
1	1698	881.262552074562	2.407169869191
1	1700	882.61485926591	3.417343563436
1	1704	884.785265778953	0.437210442251
1	1714	889.44462412274	0.705151499605
1	1716	889.640353099875	0.564279990876
1	1718	889.954010660666	0.67944994284
1	1720	891.143115510511	1.742572808538
1	1726	896.291121637192	0.929402882632
1	1732	898.211245680418	2.095768918262
1	1734	901.419312627148	4.513320373219
1	1736	901.864998498246	4.179525353571
1	1740	905.243239400259	0.96823821459
1	1744	906.494288625324	0.593623003711
1	1750	907.495799292294	0.704404229097
1	1752	907.992560548714	0.889768589993
1	1760	912.813042170805	3.789549929226
1	1766	915.895379324442	5.292943350321
1	1770	917.091808804598	5.097627543874
1	1776	920.466060101194	6.517472177736
1	1778	921.330619245406	7.075996015463
1	1780	922.147073884904	5.386308632835
1	1782	922.481639177727	5.346742483863
1	1784	922.496463298522	3.196684309519
1	1788	925.44206344367	1.637561373833
1	1794	930.190530684123	2.686210458165
1	1796	931.514522712629	2.819418594475
1	1800	933.275048434361	0.560283989094
1	1806	934.513514314177	0.479393354255
1	1810	935.878457287489	1.487068316523
1	1812	935.992579515307	0.897544448905
1	1818	938.650609491458	1.535703573353
1	1820	939.341369965276	1.725018503446
1	1824	940.83339504377	0.072698671575
1	1828	942.760780108439	1.73186103029
1	1832	943.52259309912	0.497099393071
1	1836	945.427451050252	0.112905504881
1	1840	947.585279981739	0.190916523497
1	1850	949.560624195233	1.962068337156
1	1852	951.094261303791	2.74908220329
1	1854	952.187072407617	3.717374572298
1	1862	953.81730557277	4.968330903708
1	1864	954.388919563787	1.621499155198