version 3
run General-26-20221028-09:56:53-16128
attr configname General
attr datetime 20221028-09:56:53
attr datetimef 20221028-095653
attr experiment General
attr inifile simu_1.ini
attr iterationvars ""
attr iterationvarsd ""
attr iterationvarsf ""
attr measurement ""
attr network Rete
attr processid 16128
attr repetition 26
attr replication #26
attr resultdir results
attr runnumber 26
attr seedset 26
config network Rete
config record-eventlog false
config repeat 30
config sim-time-limit 1000s
config simtime-resolution ps
config **.Servente.serviceTime exponential(1s)
config **.Arrivi.interArrivalTime exponential(2s)

vector 0 Rete.Servente queueLength:vector ETV
attr interpolationmode sample-hold
attr recordingmode vector
attr title "queue length"
vector 1 Rete.Pozzo lifeTime:vector ETV
attr interpolationmode none
attr recordingmode vector
attr title "lifetime of arrived jobs"
attr unit s
0	0	0	0
0	8	3.932350162302	1
0	9	4.695773836172	0
0	12	5.571312540576	1
0	14	5.780567927611	2
0	15	6.252717689734	1
0	17	6.367566507738	0
0	52	21.917827371304	1
0	54	23.020495887584	2
0	55	23.333948558351	1
0	58	23.649076289877	2
0	60	24.343995674238	3
0	61	25.499869046544	2
0	64	26.524097456425	3
0	66	26.929172627912	4
0	67	28.780766927884	3
0	69	28.817158487359	2
0	71	29.656892988598	1
0	73	31.602604604512	0
0	76	31.817800124148	1
0	77	32.267149462373	0
0	88	37.487673932813	1
0	90	38.835576855141	2
0	92	39.141838326972	3
0	93	40.854132447197	2
0	96	41.67359499174	3
0	98	42.999712897437	4
0	99	44.556771610222	3
0	102	44.932553221074	4
0	103	45.303432510161	3
0	105	47.224147136799	2
0	108	47.481960491472	3
0	109	47.57379478943	2
0	112	47.844033482131	3
0	113	48.49041547254	2
0	115	49.879254939575	1
0	117	50.835884024326	0
0	152	71.960474524707	1
0	153	72.514664649846	0
0	156	72.605368403693	1
0	157	73.04070458164	0
0	176	86.248668861516	1
0	178	86.393956137819	2
0	179	88.974613968423	1
0	182	91.495180534432	2
0	183	91.661324901471	1
0	185	91.969046206171	0
0	192	98.899062879968	1
0	193	100.571658430831	0
0	200	102.196675088626	1
0	201	102.330730916992	0
0	212	109.298358652357	1
0	213	110.251527011074	0
0	216	113.272066745107	1
0	217	113.306950423871	0
0	224	115.675997197874	1
0	225	115.754330137203	0
0	228	116.252463670572	1
0	229	116.471866200946	0
0	256	130.382278408622	1
0	258	132.887010768975	2
0	259	132.901711464331	1
0	262	134.381625518589	2
0	263	135.161446853111	1
0	266	135.203034863076	2
0	267	135.874526034577	1
0	270	136.622840150021	2
0	271	137.360745497105	1
0	273	137.504711712399	0
0	284	149.31542990161	1
0	286	150.28170977192	2
0	287	151.829740947091	1
0	289	152.925692002069	0
0	296	155.048131820442	1
0	298	155.746936390144	2
0	300	156.614888738046	3
0	302	157.123160907796	4
0	303	157.559503827766	3
0	306	157.774212009476	4
0	308	158.527174669237	5
0	310	159.028315892714	6
0	311	159.088184913509	5
0	313	159.501930658967	4
0	315	160.169210892577	3
0	317	160.397135563513	2
0	319	160.713835556722	1
0	321	160.884520966475	0
0	324	161.072583853267	1
0	326	161.73601306346	2
0	328	162.790537538126	3
0	329	163.80162651943	2
0	331	164.113262672017	1
0	333	164.484103185925	0
0	336	165.074375850371	1
0	337	166.474460255204	0
0	344	169.462069055466	1
0	345	170.005742635273	0
0	352	172.254101059228	1
0	353	173.056217968377	0
0	380	189.914891617504	1
0	381	190.448682809544	0
0	384	191.261973505857	1
0	385	192.896585237485	0
0	396	195.006669878863	1
0	397	196.099261189028	0
0	408	198.397908762706	1
0	409	198.456017612483	0
0	412	199.209201875375	1
0	414	199.79873983848	2
0	415	199.923365912085	1
0	417	200.023761995354	0
0	448	222.24005162961	1
0	449	222.368713397322	0
0	452	223.187163027493	1
0	454	224.441213352411	2
0	455	224.469850626429	1
0	457	225.044823576894	0
0	476	239.745011271966	1
0	477	240.866569065442	0
0	496	254.994056494878	1
0	497	256.738294950206	0
0	520	268.272703145525	1
0	522	268.58005777144	2
0	523	268.72564453118	1
0	526	268.781526279701	2
0	527	269.623620129943	1
0	529	270.321353551327	0
0	536	272.646565669522	1
0	537	272.826507021652	0
0	548	275.8546018044	1
0	550	276.042276547229	2
0	552	276.188299070142	3
0	553	276.357689009406	2
0	555	276.447749981957	1
0	557	276.560258561428	0
0	600	303.767816430147	1
0	601	303.991660659169	0
0	612	310.552476130771	1
0	614	310.927535398316	2
0	616	311.326378027265	3
0	617	311.925285752267	2
0	619	312.011705828677	1
0	622	313.092544189896	2
0	623	313.115762387023	1
0	625	314.547940905833	0
0	628	317.024100322096	1
0	629	317.283670344238	0
0	632	319.039384790031	1
0	633	319.524173274037	0
0	640	322.849404547722	1
0	641	324.685484185388	0
0	648	327.255124261152	1
0	649	327.374076039586	0
0	652	332.780945191501	1
0	653	333.090328704192	0
0	656	333.318561018017	1
0	658	333.778857823595	2
0	660	334.004149808327	3
0	662	334.815930315115	4
0	663	335.423441926625	3
0	665	335.905800758135	2
0	668	336.084945042649	3
0	669	336.321612592986	2
0	672	336.593099324508	3
0	673	337.250201303179	2
0	676	337.634073769401	3
0	677	337.806616130578	2
0	679	338.913676359072	1
0	681	339.126481457358	0
0	684	339.66609259006	1
0	686	341.336877264988	2
0	688	342.379316030119	3
0	689	342.395644888	2
0	691	342.914845315198	1
0	694	344.783633690265	2
0	695	346.989274388853	1
0	698	347.651665906998	2
0	699	347.659406018415	1
0	701	347.848779475298	0
0	704	351.462656783582	1
0	705	352.085306235586	0
0	724	367.519305857713	1
0	725	368.5091137768	0
0	732	369.413084648521	1
0	733	369.468944837329	0
0	752	382.278129873778	1
0	754	382.619104601028	2
0	755	383.665070017606	1
0	757	383.872604439013	0
0	768	388.239805193239	1
0	769	388.385104349342	0
0	780	390.158502608479	1
0	782	390.483819125781	2
0	783	391.006612149781	1
0	786	391.718687412291	2
0	787	393.395682721176	1
0	789	393.399898031676	0
0	808	402.224052969169	1
0	809	403.017057134411	0
0	820	407.827338888887	1
0	822	408.765926467146	2
0	824	408.918374122345	3
0	825	409.351009360287	2
0	827	409.836331433989	1
0	829	412.761450166106	0
0	832	412.822753846749	1
0	833	413.163758697213	0
0	836	413.245631042513	1
0	838	413.804858441345	2
0	840	414.471746867083	3
0	841	414.74273253996	2
0	843	414.900567771856	1
0	845	415.312472555201	0
0	856	422.555208600036	1
0	857	424.833069246505	0
0	868	430.078605644046	1
0	869	431.019189753795	0
0	872	432.399399584321	1
0	873	432.542209233421	0
0	876	432.785894633779	1
0	877	432.800660260263	0
0	884	438.089992979387	1
0	885	438.862027107911	0
0	892	440.89948557289	1
0	893	441.147770669877	0
0	896	441.190615490544	1
0	898	442.287049005184	2
0	900	442.992703202727	3
0	901	443.193633090904	2
0	903	444.719140807963	1
0	905	444.859929133548	0
0	908	445.32454256659	1
0	910	445.90056829711	2
0	912	446.610719584996	3
0	914	446.880633206158	4
0	915	449.699959597584	3
0	918	450.702741229182	4
0	919	453.929791320985	3
0	921	454.19884947691	2
0	924	455.435239140918	3
0	925	456.252339205636	2
0	927	457.004948850714	1
0	929	458.115144250005	0
0	936	461.345990867766	1
0	937	462.397555624718	0
0	944	463.649523231865	1
0	945	464.240306759854	0
0	956	468.056289858529	1
0	957	468.273251165835	0
0	984	479.645847054845	1
0	985	479.782360228325	0
0	988	480.09599589746	1
0	990	481.281770584215	2
0	991	482.404877706358	1
0	993	482.786213059535	0
0	996	483.267436609184	1
0	997	483.50062371749	0
0	1016	493.648475419011	1
0	1017	494.603921300387	0
0	1032	504.884749192901	1
0	1034	505.397281913593	2
0	1035	505.989271851061	1
0	1037	506.014167212872	0
0	1048	510.375890562803	1
0	1049	510.470752369403	0
0	1052	510.575978884233	1
0	1054	511.082930022744	2
0	1055	511.166336775469	1
0	1057	511.221411539748	0
0	1064	513.159231335284	1
0	1065	513.179762275608	0
0	1092	523.395750957106	1
0	1093	523.896064646217	0
0	1096	524.297541437962	1
0	1097	527.988656458704	0
0	1100	528.758656250547	1
0	1102	529.570879978398	2
0	1103	530.801920459305	1
0	1105	530.988144167063	0
0	1112	536.612246809617	1
0	1113	537.347524739681	0
0	1128	547.838462431994	1
0	1130	547.881473294761	2
0	1131	547.888869413975	1
0	1133	548.048428562012	0
0	1144	552.975612993615	1
0	1145	552.995328161287	0
0	1156	556.322654008367	1
0	1157	557.559899901406	0
0	1160	557.596661397489	1
0	1161	557.615717764486	0
0	1180	567.016371040995	1
0	1181	567.294145189299	0
0	1184	567.497783200523	1
0	1185	570.425156548834	0
0	1192	572.178554009845	1
0	1193	572.355124309379	0
0	1196	574.70426903713	1
0	1197	576.837920599024	0
0	1204	581.040749844257	1
0	1205	581.929448422359	0
0	1208	582.114636214056	1
0	1209	582.172603501078	0
0	1216	584.799441160515	1
0	1217	584.981666667544	0
0	1220	585.338738932933	1
0	1221	585.72480407486	0
0	1236	590.8909507163	1
0	1238	591.915627315096	2
0	1239	592.151107880667	1
0	1241	593.282813647344	0
0	1280	626.217335959922	1
0	1281	626.591860524099	0
0	1292	629.661728324781	1
0	1293	629.935952867226	0
0	1300	631.999005070601	1
0	1302	633.198728021844	2
0	1303	633.944374440339	1
0	1305	633.95358400553	0
0	1308	635.146471390968	1
0	1309	635.489282269206	0
0	1324	640.300125670945	1
0	1325	641.216345781208	0
0	1328	642.174526396332	1
0	1329	642.521129897124	0
0	1336	645.549130584372	1
0	1338	646.442553198101	2
0	1339	647.928775977027	1
0	1342	648.102674358477	2
0	1343	648.443534809089	1
0	1346	649.545617159215	2
0	1347	650.062029930171	1
0	1349	650.518665473327	0
0	1356	652.929366402317	1
0	1358	653.425057920702	2
0	1359	654.516767333739	1
0	1361	654.736754229371	0
0	1364	656.325015406762	1
0	1365	656.816958845109	0
0	1368	657.088814985317	1
0	1369	657.668999858271	0
0	1376	661.572325172226	1
0	1377	661.654428586615	0
0	1380	661.654512644926	1
0	1381	661.765755492008	0
0	1384	661.979865811378	1
0	1385	662.124558724382	0
0	1416	677.16678703439	1
0	1417	677.248806858314	0
0	1432	687.69781443559	1
0	1434	687.704031907522	2
0	1436	688.019375675164	3
0	1437	689.026009184826	2
0	1439	689.683097635653	1
0	1441	689.839750611887	0
0	1444	690.745261348289	1
0	1445	691.60383338941	0
0	1460	698.975602444493	1
0	1462	699.770755687802	2
0	1463	699.844580412303	1
0	1466	700.936371551615	2
0	1467	701.243863411356	1
0	1470	702.34827637226	2
0	1471	702.620514985104	1
0	1473	702.962509059372	0
0	1480	705.946701730743	1
0	1481	705.973342804561	0
0	1484	706.299505626792	1
0	1485	706.370328465709	0
0	1488	707.475188801287	1
0	1489	708.393650124137	0
0	1496	710.218355705576	1
0	1497	710.323933019312	0
0	1500	710.449472678849	1
0	1501	710.654487305273	0
0	1504	710.872241969063	1
0	1505	711.124269853294	0
0	1508	712.625696731102	1
0	1509	713.078200785978	0
0	1512	713.13337154013	1
0	1514	714.00943067657	2
0	1515	714.782544134935	1
0	1518	715.228051537959	2
0	1520	715.544382197843	3
0	1521	716.495545896656	2
0	1523	717.054739092622	1
0	1526	720.146762070589	2
0	1528	720.225340237866	3
0	1529	720.413381972781	2
0	1532	720.441972586211	3
0	1533	721.319990307619	2
0	1535	722.007357275531	1
0	1537	722.125829637172	0
0	1556	737.81599951044	1
0	1558	738.323059608202	2
0	1560	738.402215949253	3
0	1561	738.521315808261	2
0	1564	738.696131938208	3
0	1566	738.740271164043	4
0	1568	738.792580320941	5
0	1569	738.94473234651	4
0	1572	738.996768980297	5
0	1574	739.596570779747	6
0	1576	740.118894356026	7
0	1578	740.891110413337	8
0	1580	740.906542693083	9
0	1581	741.805744233663	8
0	1583	741.894699811308	7
0	1585	744.888075506114	6
0	1587	745.444080978046	5
0	1590	746.042586799913	6
0	1591	746.535503330269	5
0	1594	746.540025945565	6
0	1596	748.821878452938	7
0	1597	749.130577838354	6
0	1599	749.812177767474	5
0	1601	749.973176236339	4
0	1603	750.108546838936	3
0	1605	751.102791400908	2
0	1607	751.275288372837	1
0	1610	751.851076456926	2
0	1612	752.894477498266	3
0	1613	753.038999367429	2
0	1615	753.067075277126	1
0	1617	753.231911094915	0
0	1624	755.325353530884	1
0	1626	757.398026650116	2
0	1627	759.924597079472	1
0	1630	760.54572288475	2
0	1631	760.816880481094	1
0	1633	762.302385974266	0
0	1636	762.438912514114	1
0	1637	762.61976234206	0
0	1640	763.886424798663	1
0	1641	764.185534098996	0
0	1660	771.513259298232	1
0	1661	772.445572082576	0
0	1668	778.814231863083	1
0	1670	779.563117206394	2
0	1671	779.723850312328	1
0	1673	779.924929915811	0
0	1680	781.703785620258	1
0	1682	782.807562398459	2
0	1683	783.939890774656	1
0	1685	785.411821771101	0
0	1688	786.634859849838	1
0	1689	789.293211013684	0
0	1700	800.337792326797	1
0	1701	800.650642206933	0
0	1712	807.97608245143	1
0	1713	808.404696516469	0
0	1716	809.93193939255	1
0	1717	810.182158982837	0
0	1736	822.226590841659	1
0	1738	822.313068083592	2
0	1739	824.456605680882	1
0	1741	825.544172170926	0
0	1748	832.724083339203	1
0	1749	834.162174886858	0
0	1752	834.572146281625	1
0	1753	834.705146933037	0
0	1804	873.875124120996	1
0	1805	874.122147930969	0
0	1816	881.187862498337	1
0	1818	881.260708162142	2
0	1819	882.199951445245	1
0	1821	882.378244051539	0
0	1828	886.239186157407	1
0	1829	888.141846797732	0
0	1832	888.344498297681	1
0	1833	888.543344051288	0
0	1860	916.761615717267	1
0	1862	917.479236516993	2
0	1864	917.8019324336	3
0	1865	918.166921800345	2
0	1867	918.176897222344	1
0	1869	919.628191560941	0
0	1876	921.473512129163	1
0	1877	921.552899629717	0
0	1884	925.968007791109	1
0	1886	926.920131781055	2
0	1888	927.606601868128	3
0	1889	927.969154402269	2
0	1892	928.065100800625	3
0	1893	928.668386128925	2
0	1896	928.934090441588	3
0	1897	929.282801791789	2
0	1899	929.289359078043	1
0	1901	929.56807271597	0
0	1916	939.240304414326	1
0	1917	943.113700573794	0
0	1920	943.228577468123	1
0	1921	943.235702829857	0
0	1928	948.730688144832	1
0	1929	948.884001331851	0
0	1932	949.01037922746	1
0	1934	949.380982803542	2
0	1935	950.555740317892	1
0	1937	951.323718204844	0
0	1948	960.718813314066	1
0	1949	960.970986821517	0
0	1952	962.102787997438	1
0	1953	962.908621761623	0
0	1984	983.768111167748	1
0	1986	984.004246544321	2
0	1987	984.363229051858	1
0	1990	984.384087903975	2
0	1991	984.624614870732	1
0	1994	984.706905341661	2
0	1995	986.534244401253	1
0	1997	989.021021276846	0
0	2000	989.2325423242	1
0	2001	989.806844087665	0
0	2004	990.055923322697	1
0	2005	992.860471836071	0
0	2016	998.797163568982	1
1	4	1.468852881032	0.732702224886
1	10	4.695773836172	1.462301737985
1	16	6.252717689734	2.320367527432
1	18	6.367566507738	0.796253967162
1	20	6.575724641969	0.795156714358
1	24	10.183708753089	0.314033225161
1	28	11.06789292972	0.685560314296
1	32	14.504910488153	1.34370144576
1	36	16.751201717295	0.21685336783
1	40	18.631112698288	0.198140313299
1	44	20.186438357383	0.77398043925
1	48	21.756975248481	0.332352583694
1	56	23.333948558351	1.431040175678
1	62	25.499869046544	3.58204167524
1	68	28.780766927884	5.7602710403
1	70	28.817158487359	5.168082197482
1	72	29.656892988598	5.31289731436
1	74	31.602604604512	5.078507148087
1	78	32.267149462373	5.337976834461
1	80	33.327611914251	1.509811790103
1	84	35.102657489045	0.769228109049
1	94	40.854132447197	5.458228053275
1	100	44.556771610222	7.069097677409
1	104	45.303432510161	6.46785565502
1	106	47.224147136799	8.082308809827
1	110	47.57379478943	5.90019979769
1	114	48.49041547254	5.490702575103
1	116	49.879254939575	4.946701718501
1	118	50.835884024326	3.353923532854
1	120	51.861337421831	4.0173039397
1	124	55.438263806111	2.567846472193
1	128	58.061090940662	2.19579775622
1	132	59.44693481062	1.03471216349
1	136	62.042097582351	0.350469109372
1	140	63.391970148108	1.147572666361
1	144	64.298693402256	0.324342271967
1	148	64.776050296714	0.135166968003
1	154	72.514664649846	0.843777708027
1	158	73.04070458164	1.080230056933
1	160	73.862606348188	1.257237944495
1	164	80.026569767093	1.92650361908
1	168	80.180064226332	0.101721473325
1	172	83.776836745023	0.437486678142
1	180	88.974613968423	3.635216337705
1	184	91.661324901471	5.412656039955
1	186	91.969046206171	5.575090068352
1	188	92.021346726954	0.526166192522
1	194	100.571658430831	2.150343740133
1	196	102.041224363165	3.142161483197
1	202	102.330730916992	0.273930963138
1	204	102.440339046398	0.243663957772
1	208	104.07635633507	0.20616024034
1	214	110.251527011074	1.397235054503
1	218	113.306950423871	4.008591771514
1	220	114.870373588528	1.598306843421
1	226	115.754330137203	0.206543660775
1	230	116.471866200946	0.795869003072
1	232	116.556824150283	0.304360479711
1	236	119.286068208278	0.740741576399
1	240	120.17128129546	0.143707722228
1	244	122.684043590513	0.221425662136
1	248	123.416390106562	0.114508122807
1	252	128.760133399662	1.001645020098
1	260	132.901711464331	3.03485363666
1	264	135.161446853111	4.779168444489
1	268	135.874526034577	2.987515265602
1	272	137.360745497105	2.979119978516
1	274	137.504711712399	2.301676849323
1	276	138.507824060196	1.884983910175
1	280	146.383135457551	0.453688876341
1	288	151.829740947091	3.718312121604
1	290	152.925692002069	3.610262100459
1	292	152.965259331388	2.683549559468
1	304	157.559503827766	4.227130127646
1	312	159.088184913509	4.040053093067
1	314	159.501930658967	3.754994268823
1	316	160.169210892577	3.554322154531
1	318	160.397135563513	3.273974655717
1	320	160.713835556722	2.939623547246
1	322	160.884520966475	2.357346297238
1	330	163.80162651943	4.773310626716
1	332	164.113262672017	3.04067881875
1	334	164.484103185925	2.748090122465
1	338	166.474460255204	3.683922717078
1	340	167.093114863005	2.018739012634
1	346	170.005742635273	1.205964156585
1	348	170.610713310544	1.148644255078
1	354	173.056217968377	1.367660244996
1	356	173.119707870355	0.865606811127
1	360	177.22224607185	0.069081576645
1	364	178.190724881161	0.35153206788
1	368	180.52076225617	0.947380305445
1	372	181.92556400184	0.013523543892
1	376	188.564687567626	0.481690946889
1	382	190.448682809544	1.138248252445
1	386	192.896585237485	2.981693619981
1	388	193.193682534778	1.931709028921
1	392	193.603728482114	0.109490469444
1	398	196.099261189028	1.794906070175
1	400	196.910138602627	1.903468723764
1	404	197.394388848555	0.005057075366
1	410	198.456017612483	0.453629963835
1	416	199.923365912085	1.525457149379
1	418	200.023761995354	0.814560119979
1	420	200.369748890888	0.571009052408
1	424	200.532773950242	0.089135311783
1	428	201.538606033311	0.207836081173
1	432	202.534982319296	0.304544467017
1	436	206.272331868194	1.035768486691
1	440	216.813384325463	0.257626651149
1	444	220.141763560633	0.721448465665
1	450	222.368713397322	1.187780576786
1	456	224.469850626429	2.229798996819
1	458	225.044823576894	1.857660549401
1	460	227.352939397526	2.911726045115
1	464	229.678844308774	1.947302336441
1	468	237.351069832407	0.575853663535
1	472	238.601589728297	0.889618704107
1	478	240.866569065442	1.538283898948
1	480	241.673817315828	1.928806043862
1	484	242.954054770433	0.969963641662
1	488	245.565832389698	0.852302936414
1	492	249.21469296517	1.332789944964
1	498	256.738294950206	4.429423047955
1	500	256.880854429401	1.886797934523
1	504	259.198146127702	0.120420096697
1	508	260.720983763689	1.209328631642
1	512	265.261030570537	0.060194196065
1	516	266.481244863689	0.819928576801
1	524	268.72564453118	0.664735806599
1	528	269.623620129943	1.350916984418
1	530	270.321353551327	1.741295779887
1	532	270.383554855929	1.602028576228
1	538	272.826507021652	0.821437856755
1	540	273.388351987837	0.741786318315
1	544	274.630169597295	0.308107214334
1	554	276.357689009406	0.678731500295
1	556	276.447749981957	0.593148177557
1	558	276.560258561428	0.517982014199
1	560	276.838729805146	0.650430735004
1	564	280.965815059002	2.790827872173
1	568	282.429203765218	0.462241409336
1	572	282.761312224717	0.20938581692
1	576	288.904484663082	1.624315893495
1	580	289.154839066187	0.156666600857
1	584	292.565272567577	2.028777444723
1	588	298.32981928438	0.346589187691
1	592	300.856471083	0.054617232086
1	596	301.836005876554	0.841025814139
1	602	303.991660659169	0.243250133913
1	604	304.182937718803	0.415121288656
1	608	305.101643490776	0.346397835908
1	618	311.925285752267	3.432851156394
1	620	312.011705828677	1.459229697906
1	624	313.115762387023	2.188226988707
1	626	314.547940905833	3.221562878568
1	630	317.283670344238	4.191126154342
1	634	319.524173274037	2.500072951941
1	636	322.381543283099	3.342158493068
1	642	324.685484185388	2.267915250002
1	644	326.344939712525	3.495535164803
1	650	327.374076039586	0.69190050541
1	654	333.090328704192	5.83520444304
1	664	335.423441926625	2.642496735124
1	666	335.905800758135	2.587239740118
1	670	336.321612592986	2.542754769391
1	674	337.250201303179	3.246051494852
1	678	337.806616130578	2.990685815463
1	680	338.913676359072	2.828731316423
1	682	339.126481457358	2.53338213285
1	690	342.395644888	4.761571118599
1	692	342.914845315198	3.248752725138
1	696	346.989274388853	5.652397123865
1	700	347.659406018415	5.280089988296
1	702	347.848779475298	3.065145785033
1	706	352.085306235586	4.433640328588
1	708	353.12147146386	1.658814680278
1	712	355.361761979163	0.362982988857
1	716	356.50330214688	0.198330824554
1	720	364.050404515316	0.543336421372
1	726	368.5091137768	2.352093631078
1	728	368.906882124834	1.387576267121
1	734	369.468944837329	0.323476505321
1	736	369.793795268097	0.380710619576
1	740	371.15459577073	0.102261611462
1	744	372.668066298967	0.157408335223
1	748	375.090760908051	0.620816210202
1	756	383.665070017606	2.329023009704
1	758	383.872604439013	1.594474565235
1	760	383.999506655038	1.38040205401
1	764	384.568465824266	0.142188079621
1	770	388.385104349342	0.223790726265
1	772	389.784637336814	1.544832143575
1	776	390.102539048345	0.125072733764
1	784	391.006612149781	0.862651882351
1	788	393.395682721176	3.237180112697
1	790	393.399898031676	2.916078905895
1	792	393.561468125208	1.842780712917
1	796	394.832133607579	0.006053641756
1	800	400.671074426096	0.105526153816
1	804	401.721332842392	0.72489402969
1	810	403.017057134411	0.800783380845
1	812	404.060193839691	1.836140870522
1	816	404.316677638996	0.187253191749
1	826	409.351009360287	2.250301705931
1	828	409.836331433989	2.008992545102
1	830	412.761450166106	3.99552369896
1	834	413.163758697213	4.245384574868
1	842	414.74273253996	1.919978693211
1	844	414.900567771856	1.654936729343
1	846	415.312472555201	1.507614113856
1	848	416.212279613551	1.740532746468
1	852	417.930062578861	0.005677407125
1	858	424.833069246505	2.628229166106
1	860	425.075485854426	2.52027725439
1	864	427.14313515732	0.486331169701
1	870	431.019189753795	1.337755636161
1	874	432.542209233421	2.463603589375
1	878	432.800660260263	0.401260675942
1	880	432.810158624015	0.024263990236
1	886	438.862027107911	1.708947280095
1	888	439.943245676997	1.85325269761
1	894	441.147770669877	0.497667326265
1	902	443.193633090904	2.294147518014
1	904	444.719140807963	3.528525317419
1	906	444.859929133548	2.572880128364
1	916	449.699959597584	6.707256394857
1	920	453.929791320985	8.605248754395
1	922	454.19884947691	8.2982811798
1	926	456.252339205636	9.64161962064
1	928	457.004948850714	10.124315644556
1	930	458.115144250005	7.412403020823
1	932	458.313552115056	2.878312974138
1	938	462.397555624718	1.319429482819
1	940	462.440659757066	1.0946688893
1	946	464.240306759854	0.705304510189
1	948	464.320144965986	0.670621734121
1	952	465.27393256417	0.372436740898
1	958	468.273251165835	1.445448590716
1	960	469.263766894938	1.207477036409
1	964	472.349843067949	1.619475442223
1	968	474.340748351828	0.967419786603
1	972	474.984090706094	0.41586789396
1	976	477.745695237891	0.254720692015
1	980	478.707088092904	0.019899771422
1	986	479.782360228325	0.430582838732
1	992	482.404877706358	2.759030651513
1	994	482.786213059535	2.690217162075
1	998	483.50062371749	2.218853133275
1	1000	485.012580834266	1.745144225082
1	1004	485.482581861718	0.130653413127
1	1008	488.116746999665	0.639955635663
1	1012	491.764414365804	1.296078727448
1	1018	494.603921300387	1.597936352224
1	1020	494.727070432389	1.078595013378
1	1024	496.057903195568	0.523177238142
1	1028	499.612120654023	0.054057080461
1	1036	505.989271851061	2.379372719302
1	1038	506.014167212872	1.129418019971
1	1040	506.205006335861	0.807724422268
1	1044	508.209223340898	1.527718834612
1	1050	510.470752369403	1.965393472991
1	1056	511.166336775469	0.790446212666
1	1058	511.221411539748	0.645432655515
1	1060	512.280497660318	1.197567637574
1	1066	513.179762275608	0.074535405546
1	1068	513.448770408094	0.28953907281
1	1072	514.636613350828	0.296795763577
1	1076	515.40479645403	0.445738109343
1	1080	518.734817711272	0.029227654318
1	1084	520.952372209595	2.116899523495
1	1088	522.217904750839	0.395110263154
1	1094	523.896064646217	0.946405149528
1	1098	527.988656458704	4.592905501598
1	1104	530.801920459305	6.504379021343
1	1106	530.988144167063	2.229487916516
1	1108	532.045369759462	2.474489781064
1	1114	537.347524739681	2.518538657354
1	1116	537.945111984479	1.332865174862
1	1120	540.114928428312	1.545595097445
1	1124	542.989032803115	0.149426472661
1	1132	547.888869413975	0.885796377446
1	1134	548.048428562012	0.209966130018
1	1136	548.517478533723	0.636005238962
1	1140	550.097381560609	0.713347417519
1	1146	552.995328161287	0.160867393303
1	1148	553.976141057304	1.000528063689
1	1152	555.402845492999	0.656894382275
1	1158	557.559899901406	1.644147877178
1	1162	557.615717764486	1.293063756119
1	1164	558.944343598559	1.34768220107
1	1168	559.938972184511	0.207073781534
1	1172	562.426776874946	0.351244416642
1	1176	564.087635693511	0.449692339299
1	1182	567.294145189299	2.284565348193
1	1186	570.425156548834	3.408785507839
1	1188	570.566004294727	3.068221094204
1	1194	572.355124309379	0.603438756913
1	1198	576.837920599024	4.659366589179
1	1200	579.269674548205	4.565405511075
1	1206	581.929448422359	0.908547191498
1	1210	582.172603501078	1.131853656821
1	1212	583.839528004793	1.724891790737
1	1218	584.981666667544	0.589394971307
1	1222	585.72480407486	0.925362914345
1	1224	586.364698694748	1.025959761815
1	1228	587.140471278538	0.276939384429
1	1232	589.600830750432	1.658674014746
1	1240	592.151107880667	1.487281696237
1	1242	593.282813647344	2.391862931044
1	1244	593.961068707459	2.045441392363
1	1248	596.096687016975	0.854576286351
1	1252	598.92537062374	0.14631910614
1	1256	600.642189792522	1.146297661086
1	1260	603.689073946976	0.058797452454
1	1264	606.077937983846	1.247899095151
1	1268	612.689275127783	0.806508120174
1	1272	625.209657250105	0.601900573547
1	1276	625.750216721126	0.129578688712
1	1282	626.591860524099	0.801994712754
1	1284	626.675329494739	0.457993534817
1	1288	628.847208444799	1.180346134768
1	1294	629.935952867226	0.996762427947
1	1296	631.156092120759	1.494363795978
1	1304	633.944374440339	2.476004167856
1	1306	633.95358400553	1.954578934929
1	1310	635.489282269206	2.290554247362
1	1312	636.101192916294	0.954721525326
1	1316	637.12829986826	0.182886471455
1	1320	638.930880473076	0.775434461475
1	1326	641.216345781208	0.957134041336
1	1330	642.521129897124	2.221004226179
1	1332	643.169056290337	0.994529894005
1	1340	647.928775977027	3.099716074881
1	1344	648.443534809089	2.894404224717
1	1348	650.062029930171	3.61947673207
1	1350	650.518665473327	2.41599111485
1	1352	651.090137183108	1.544520023893
1	1360	654.516767333739	1.708036862744
1	1362	654.736754229371	1.807387827054
1	1366	656.816958845109	3.391900924407
1	1370	657.668999858271	1.343984451509
1	1372	658.193030331305	1.104215345988
1	1378	661.654428586615	1.257079105917
1	1382	661.765755492008	0.193430319782
1	1386	662.124558724382	0.470046079456
1	1388	662.310859218432	0.330993407054
1	1392	663.916277757252	0.901589007621
1	1396	665.534041985455	0.098570449259
1	1400	666.037392491247	0.422974612219
1	1404	667.150257646756	0.153720754781
1	1408	669.638194902218	0.284423373175
1	1412	670.66784577643	0.44208821254
1	1418	677.248806858314	2.781632372307
1	1420	677.534224670961	0.367437636571
1	1424	680.005289960493	0.895448351013
1	1428	681.483907830098	0.174826664941
1	1438	689.026009184826	1.829585096833
1	1440	689.683097635653	1.985283200063
1	1442	689.839750611887	2.135718704365
1	1446	691.60383338941	3.584457714246
1	1448	691.727095590522	0.981834242233
1	1452	694.585280772	0.044217064304
1	1456	695.826692694628	0.48832376657
1	1464	699.844580412303	1.042869348492
1	1468	701.243863411356	2.268260966863
1	1472	702.620514985104	2.849759297302
1	1474	702.962509059372	2.026137507757
1	1476	703.556664356751	1.208387984491
1	1482	705.973342804561	1.957259498573
1	1486	706.370328465709	0.423626734966
1	1490	708.393650124137	2.094144497345
1	1492	708.556744187035	1.081555385748
1	1498	710.323933019312	0.563740427716
1	1502	710.654487305273	0.436131599697
1	1506	711.124269853294	0.674797174445
1	1510	713.078200785978	2.205958816915
1	1516	714.782544134935	2.156847403833
1	1522	716.495545896656	3.362174356526
1	1524	717.054739092622	3.045308416052
1	1530	720.413381972781	5.185330434822
1	1534	721.319990307619	5.775608109776
1	1536	722.007357275531	1.860595204942
1	1538	722.125829637172	1.900489399306
1	1540	723.866347165992	3.424374579781
1	1544	729.491572284696	1.960892813328
1	1548	732.542197994222	0.567830932527
1	1552	734.314948103087	0.225441044714
1	1562	738.521315808261	1.721414268068
1	1570	738.94473234651	1.12873283607
1	1582	741.805744233663	3.482684625461
1	1584	741.894699811308	3.492483862055
1	1586	744.888075506114	6.191943567906
1	1588	745.444080978046	6.703809814003
1	1592	746.535503330269	7.742923009328
1	1598	749.130577838354	10.133808858057
1	1600	749.812177767474	10.215606987727
1	1602	749.973176236339	9.854281880313
1	1604	750.108546838936	9.217436425599
1	1606	751.102791400908	10.196248707825
1	1608	751.275288372837	5.232701572924
1	1614	753.038999367429	6.498973421864
1	1616	753.067075277126	4.245196824188
1	1618	753.231911094915	1.380834637989
1	1620	753.932138099511	1.037660601245
1	1628	759.924597079472	5.99236845389
1	1632	760.816880481094	5.49152695021
1	1634	762.302385974266	4.90435932415
1	1638	762.61976234206	2.07403945731
1	1642	764.185534098996	1.746621584882
1	1644	764.278399669377	0.391974870714
1	1648	765.496621145205	1.127510579848
1	1652	766.571743873681	0.217383168302
1	1656	768.580598614433	1.766842122499
1	1662	772.445572082576	1.4401886495
1	1664	773.517487283399	2.004227985167
1	1672	779.723850312328	1.307910747919
1	1674	779.924929915811	1.110698052728
1	1676	780.545024616643	0.981907410249
1	1684	783.939890774656	2.339623720679
1	1686	785.411821771101	3.708036150843
1	1690	789.293211013684	6.485648615225