version 3
run General-10-20221028-09:56:52-16128
attr configname General
attr datetime 20221028-09:56:52
attr datetimef 20221028-095652
attr experiment General
attr inifile simu_1.ini
attr iterationvars ""
attr iterationvarsd ""
attr iterationvarsf ""
attr measurement ""
attr network Rete
attr processid 16128
attr repetition 10
attr replication #10
attr resultdir results
attr runnumber 10
attr seedset 10
config network Rete
config record-eventlog false
config repeat 30
config sim-time-limit 1000s
config simtime-resolution ps
config **.Servente.serviceTime exponential(1s)
config **.Arrivi.interArrivalTime exponential(2s)

vector 0 Rete.Servente queueLength:vector ETV
attr interpolationmode sample-hold
attr recordingmode vector
attr title "queue length"
vector 1 Rete.Pozzo lifeTime:vector ETV
attr interpolationmode none
attr recordingmode vector
attr title "lifetime of arrived jobs"
attr unit s
0	0	0	0
0	12	6.195886416307	1
0	13	6.40697397199	0
0	24	11.564283835183	1
0	25	11.734020971464	0
0	40	15.589787179508	1
0	41	16.420185583708	0
0	44	17.892664442119	1
0	45	19.486197495623	0
0	60	26.975066133975	1
0	62	27.037256393932	2
0	63	27.481575710933	1
0	65	29.582158675112	0
0	68	29.595765158873	1
0	69	29.927294827712	0
0	72	32.195525229681	1
0	73	32.425580047687	0
0	80	34.034295630735	1
0	81	34.534491994071	0
0	96	40.275760417106	1
0	97	40.455527465297	0
0	104	43.996867271536	1
0	106	44.663835388512	2
0	107	44.735830872024	1
0	109	44.803642228698	0
0	116	46.219585041072	1
0	117	47.022277001685	0
0	124	49.143523758798	1
0	125	49.857214280399	0
0	128	51.036731581017	1
0	130	51.843313294882	2
0	131	52.250259069245	1
0	134	52.61239272466	2
0	136	52.802023899511	3
0	137	53.070440774291	2
0	139	53.428116300499	1
0	142	53.619463643142	2
0	144	53.86150500206	3
0	145	53.957755376377	2
0	148	54.021444008613	3
0	149	55.721985222191	2
0	151	55.770016809492	1
0	153	56.349812898689	0
0	160	58.116787360491	1
0	161	58.649832352227	0
0	180	68.268509999461	1
0	181	68.9320859638	0
0	208	88.772626611429	1
0	209	90.212092230221	0
0	220	96.435194670011	1
0	221	97.51235615744	0
0	224	97.581851366326	1
0	226	98.462742043017	2
0	228	99.6814740777	3
0	230	101.450723557961	4
0	231	101.904471704055	3
0	233	102.066368870388	2
0	235	102.355884803681	1
0	237	102.543707781721	0
0	244	105.961757940018	1
0	245	107.28084736046	0
0	248	107.993712492836	1
0	249	108.045615038236	0
0	252	108.925799293707	1
0	254	108.930618621818	2
0	255	108.937704421556	1
0	258	109.010766845952	2
0	259	109.733585244545	1
0	261	109.869372718739	0
0	264	109.894553391131	1
0	265	109.952333862021	0
0	268	110.060865975233	1
0	269	110.316839270347	0
0	272	110.596725778072	1
0	273	110.718391012554	0
0	284	113.692080971294	1
0	285	113.799391188335	0
0	292	115.166872570669	1
0	294	115.410414324514	2
0	295	115.669367916606	1
0	298	116.260772076296	2
0	300	116.348879319325	3
0	301	116.544077874333	2
0	304	116.878480535572	3
0	306	118.504677502468	4
0	307	118.663634764158	3
0	309	119.405574966236	2
0	312	121.386099065349	3
0	313	121.510101669356	2
0	315	122.050543463569	1
0	318	122.250615457073	2
0	319	123.272448129044	1
0	322	124.111280991058	2
0	323	124.991163908598	1
0	325	125.135684604764	0
0	328	125.552180567046	1
0	329	126.046581536057	0
0	344	129.564836505478	1
0	345	129.847457011571	0
0	352	130.373645912014	1
0	353	131.188592313943	0
0	372	137.545202562885	1
0	373	140.417652444865	0
0	384	149.191904374757	1
0	386	149.415853634969	2
0	388	150.578256192153	3
0	390	151.409400079762	4
0	391	151.634462064407	3
0	394	152.175651494236	4
0	395	153.439737200798	3
0	398	153.642744146662	4
0	399	154.066051539939	3
0	401	154.163505728349	2
0	404	155.368890791428	3
0	405	156.087200689221	2
0	407	156.157727529016	1
0	409	156.569097310895	0
0	420	161.329337882197	1
0	421	162.358261523707	0
0	424	162.899513936439	1
0	425	163.240203913716	0
0	436	169.785525603123	1
0	438	170.003774279342	2
0	439	170.29649331641	1
0	442	170.716352521896	2
0	443	170.970926068249	1
0	445	171.000539816423	0
0	468	178.718412705691	1
0	469	178.78844019456	0
0	472	180.10163216969	1
0	474	180.672912422941	2
0	475	180.958481502543	1
0	477	181.354705484965	0
0	480	181.582322823748	1
0	482	181.588163514938	2
0	483	181.601590336086	1
0	485	181.951775159532	0
0	496	193.593938534697	1
0	497	193.683920869379	0
0	536	225.61833029614	1
0	537	226.08472855089	0
0	540	226.465493172986	1
0	542	226.600975881898	2
0	544	228.273856251621	3
0	545	228.679765415144	2
0	548	228.772389531905	3
0	550	229.067935905956	4
0	552	229.097878978931	5
0	553	229.442200272973	4
0	556	231.82534788393	5
0	558	232.676756961882	6
0	559	233.254344633839	5
0	561	234.116299304619	4
0	564	234.378834879331	5
0	566	234.747529129807	6
0	567	235.685348906078	5
0	569	235.724060317269	4
0	572	236.39658173331	5
0	573	237.822360478148	4
0	575	238.699901349923	3
0	578	239.795052107957	4
0	579	240.373690348179	3
0	581	240.58248195862	2
0	583	240.74327702678	1
0	585	241.210185285534	0
0	620	256.085953501599	1
0	621	257.218680530717	0
0	628	263.229829194331	1
0	629	263.514543067068	0
0	636	267.488005126	1
0	637	267.789564078996	0
0	660	280.105306690086	1
0	662	280.680367479668	2
0	663	280.759787412988	1
0	665	281.199194160019	0
0	672	281.700424946388	1
0	673	283.474776304207	0
0	680	287.641561209743	1
0	681	288.697679345568	0
0	684	289.361254296781	1
0	685	290.584909614776	0
0	688	291.101248947874	1
0	689	291.509139228524	0
0	692	291.634189319242	1
0	694	292.95353362808	2
0	695	293.028099609989	1
0	697	293.820058407534	0
0	712	305.977929240757	1
0	714	306.011998204107	2
0	715	306.238822538289	1
0	717	306.255999192001	0
0	724	307.894861324727	1
0	725	309.311859863015	0
0	740	318.660232045719	1
0	741	319.227014919576	0
0	744	319.710386857773	1
0	745	319.837104004499	0
0	752	321.418398147454	1
0	753	321.540547628067	0
0	764	327.935775956251	1
0	765	328.22730547739	0
0	800	346.903572950526	1
0	801	348.378164787056	0
0	812	355.008485579059	1
0	814	355.708650055663	2
0	815	355.907270118883	1
0	817	356.104001135595	0
0	828	362.605365346009	1
0	829	363.287024117768	0
0	832	363.792725253122	1
0	833	363.995489851067	0
0	844	367.748796954009	1
0	846	367.839335935776	2
0	847	368.83090701867	1
0	849	369.115255352724	0
0	856	375.850442080601	1
0	857	376.605548890259	0
0	884	386.208737020053	1
0	886	387.081787534892	2
0	887	387.810455138149	1
0	889	388.115777453718	0
0	896	389.871328826353	1
0	897	389.96637208787	0
0	900	390.463155736467	1
0	901	390.482997571727	0
0	908	391.401023547907	1
0	909	393.136983708218	0
0	916	395.90256153183	1
0	917	396.080675876568	0
0	924	398.503254823522	1
0	925	398.535794218291	0
0	928	400.377103881442	1
0	929	400.397668424506	0
0	936	402.224277260089	1
0	937	402.877797805056	0
0	956	413.677042132323	1
0	958	413.784286753411	2
0	960	414.498238494077	3
0	962	414.968769194261	4
0	963	415.822175880442	3
0	966	415.978595084254	4
0	967	416.132944844551	3
0	969	416.153332190566	2
0	971	416.684830153928	1
0	973	417.214372675486	0
0	980	420.68744223734	1
0	981	420.965438113804	0
0	992	427.891222149131	1
0	994	429.113430501955	2
0	996	429.632999739953	3
0	997	432.056810637883	2
0	999	433.010548105612	1
0	1001	433.387289445194	0
0	1012	443.008308149037	1
0	1014	443.110095248969	2
0	1015	443.367298893395	1
0	1017	444.365604195316	0
0	1028	448.01860357643	1
0	1029	448.420394202049	0
0	1032	448.561981806318	1
0	1034	449.124536976699	2
0	1035	451.209343155877	1
0	1038	451.581725933847	2
0	1040	452.193155079661	3
0	1041	452.295808196122	2
0	1043	452.426299551084	1
0	1045	452.912177656947	0
0	1048	453.050126861695	1
0	1049	453.52600404198	0
0	1052	456.484337847215	1
0	1053	457.207411432891	0
0	1076	473.095549836938	1
0	1078	473.67881739769	2
0	1079	474.843998123272	1
0	1081	475.058883927807	0
0	1088	481.380165141059	1
0	1090	482.563897277421	2
0	1092	482.881346751074	3
0	1093	482.994201130495	2
0	1095	483.115194655549	1
0	1097	484.39977501823	0
0	1104	486.038840274523	1
0	1105	487.493458362142	0
0	1108	487.697871938532	1
0	1109	487.880801704797	0
0	1116	491.229329491371	1
0	1117	491.233845757265	0
0	1120	491.988304907264	1
0	1121	492.017935743027	0
0	1128	495.264826971209	1
0	1130	496.363101615754	2
0	1131	496.757694408029	1
0	1133	497.300400868798	0
0	1144	506.301220763814	1
0	1146	508.00606129608	2
0	1148	508.127308077239	3
0	1149	508.347648701319	2
0	1151	508.867480239021	1
0	1153	508.94142116957	0
0	1164	511.972570468821	1
0	1165	512.229967515137	0
0	1176	516.527387174247	1
0	1177	518.0875867098	0
0	1180	518.326595369576	1
0	1182	518.81325653517	2
0	1183	520.214472621185	1
0	1185	520.61279703447	0
0	1188	520.650614735477	1
0	1190	520.792045045933	2
0	1192	520.908634644368	3
0	1193	521.649076272117	2
0	1195	522.00216351352	1
0	1197	522.949531972011	0
0	1200	523.495363447986	1
0	1202	523.744234799824	2
0	1203	524.126455941505	1
0	1206	524.163281882586	2
0	1207	525.2891796404	1
0	1209	525.445855222956	0
0	1236	546.430659016147	1
0	1238	546.952895184476	2
0	1239	547.339341626199	1
0	1242	547.411121880096	2
0	1243	548.298398606619	1
0	1246	549.636781625634	2
0	1247	549.763492308545	1
0	1249	550.534395725933	0
0	1256	553.706293264573	1
0	1258	555.921713460644	2
0	1259	556.096005119565	1
0	1261	556.61814671021	0
0	1308	590.716131538376	1
0	1309	593.977459548606	0
0	1320	596.939328241722	1
0	1321	597.530138224962	0
0	1336	603.254731402504	1
0	1337	603.66632048775	0
0	1340	604.578798570124	1
0	1341	605.490047586928	0
0	1352	608.695101981377	1
0	1353	609.347508577266	0
0	1356	611.319609649968	1
0	1357	611.527478619899	0
0	1372	620.080004684281	1
0	1374	620.726135028015	2
0	1376	621.792634226953	3
0	1377	621.870850378522	2
0	1379	622.637576759573	1
0	1381	623.362734155333	0
0	1396	632.549042595813	1
0	1397	633.731491578639	0
0	1412	641.172216083369	1
0	1413	643.012215010684	0
0	1428	646.669289048141	1
0	1430	647.511898506688	2
0	1431	648.717725826902	1
0	1433	648.726228787729	0
0	1452	658.768486094246	1
0	1454	658.90722586614	2
0	1456	659.089545867761	3
0	1458	659.326786048031	4
0	1459	660.060985203651	3
0	1462	660.211448427177	4
0	1463	660.410918355639	3
0	1465	660.555694360415	2
0	1467	660.696649351418	1
0	1469	661.789829543807	0
0	1476	663.940246988211	1
0	1477	664.584293775823	0
0	1480	664.732381773743	1
0	1481	664.902471038051	0
0	1484	665.085995301655	1
0	1486	665.218417884743	2
0	1487	665.738373732096	1
0	1490	666.513561177502	2
0	1491	667.090602574783	1
0	1494	668.140220459371	2
0	1495	668.331074246088	1
0	1497	669.007336657383	0
0	1500	669.302491537674	1
0	1501	670.190648900206	0
0	1516	676.952908857525	1
0	1517	677.502925870546	0
0	1528	681.336817620589	1
0	1530	681.408782456836	2
0	1531	682.157392321666	1
0	1533	683.212021633949	0
0	1580	710.017859978967	1
0	1581	713.35196638754	0
0	1588	715.896827155035	1
0	1589	716.911158278626	0
0	1604	721.729369233769	1
0	1606	722.21677354834	2
0	1607	723.143385532334	1
0	1609	724.382204621554	0
0	1612	724.441730920185	1
0	1613	725.607506220454	0
0	1616	726.418713863187	1
0	1618	726.838470224379	2
0	1619	727.525886736129	1
0	1622	728.314966714448	2
0	1623	728.970289704433	1
0	1626	729.484519862036	2
0	1628	731.098264768478	3
0	1629	731.235124789531	2
0	1631	732.290662793403	1
0	1633	732.540115040515	0
0	1636	733.308663716313	1
0	1637	734.093900087913	0
0	1640	734.45997501375	1
0	1642	736.147907417099	2
0	1643	736.322022207936	1
0	1645	736.439660101187	0
0	1656	738.612448340844	1
0	1658	738.67259779449	2
0	1659	739.13850409537	1
0	1661	739.622388183889	0
0	1672	744.666306600839	1
0	1673	745.15848270868	0
0	1700	756.280859864723	1
0	1702	758.097591355208	2
0	1703	758.125846707022	1
0	1705	758.795572909719	0
0	1712	759.942615283714	1
0	1713	760.869002030299	0
0	1720	766.684237405344	1
0	1721	767.174771323798	0
0	1724	767.854802364439	1
0	1725	770.543096475822	0
0	1728	770.667695321415	1
0	1730	771.376559068497	2
0	1731	772.186562584409	1
0	1733	772.732179394167	0
0	1740	780.32204619396	1
0	1741	780.670817500841	0
0	1744	781.869343070687	1
0	1745	781.926041316247	0
0	1756	792.931999413786	1
0	1758	793.262089762444	2
0	1759	794.29118034488	1
0	1762	794.433105798272	2
0	1764	794.813127214467	3
0	1765	795.573002412736	2
0	1767	795.694635848081	1
0	1769	797.291207535523	0
0	1772	797.331097849142	1
0	1773	798.890104182906	0
0	1780	800.930389767757	1
0	1781	801.38377021823	0
0	1800	813.480755075738	1
0	1801	813.694606793424	0
0	1816	818.649536175559	1
0	1817	819.580052793334	0
0	1828	821.836988260918	1
0	1829	825.028063250968	0
0	1832	825.926465915752	1
0	1833	826.677628237264	0
0	1856	840.167009313028	1
0	1858	841.095865852098	2
0	1859	841.611556341538	1
0	1862	841.654963248284	2
0	1863	841.964887325628	1
0	1865	842.521563428249	0
0	1868	842.65954851678	1
0	1870	843.560892288462	2
0	1872	844.205769603299	3
0	1874	844.23496021051	4
0	1875	846.036137832401	3
0	1877	846.209492217407	2
0	1879	847.674882398284	1
0	1881	848.409006356641	0
0	1884	849.791351288758	1
0	1886	850.331654128126	2
0	1887	850.569386302769	1
0	1889	852.493165030627	0
0	1896	855.337149664985	1
0	1898	855.500418138539	2
0	1899	855.984409310881	1
0	1901	856.047442708229	0
0	1912	862.924316036179	1
0	1913	863.07635293436	0
0	1916	863.345905181761	1
0	1917	863.512975266695	0
0	1920	863.654198648472	1
0	1921	863.782625415771	0
0	1940	874.391382953469	1
0	1941	875.01656833236	0
0	1964	884.482187172162	1
0	1965	884.544662027962	0
0	1992	903.476874802272	1
0	1994	903.55647436465	2
0	1995	903.877916810513	1
0	1998	904.86259227198	2
0	2000	904.922799346445	3
0	2002	907.931564628264	4
0	2004	907.954553285593	5
0	2005	910.262275540074	4
0	2007	910.665509139023	3
0	2009	912.100595938837	2
0	2011	912.163994927024	1
0	2014	912.656282007795	2
0	2015	913.768406048215	1
0	2017	913.992962718509	0
0	2020	914.479751795043	1
0	2021	916.163820228978	0
0	2024	916.399142789468	1
0	2025	916.695076083675	0
0	2052	938.203022038021	1
0	2053	938.942575663345	0
0	2056	939.479380441195	1
0	2057	941.365073554973	0
0	2060	941.514233607959	1
0	2061	941.87736138355	0
0	2072	947.670310937044	1
0	2073	948.414680651626	0
0	2096	968.779044240594	1
0	2098	968.99603660565	2
0	2099	970.322344304463	1
0	2102	970.531577780988	2
0	2103	971.322473559527	1
0	2105	972.075341253746	0
0	2108	972.416993245229	1
0	2109	972.817405361375	0
0	2112	973.728060586091	1
0	2113	973.838027008117	0
0	2124	975.369649313851	1
0	2125	975.817460472429	0
0	2132	978.271677702783	1
0	2133	978.942479584909	0
0	2156	986.000726559208	1
0	2158	988.032995261673	2
0	2160	988.466658942025	3
0	2161	988.758370688048	2
0	2163	989.185156222846	1
0	2165	990.195166149224	0
1	4	2.971839184243	0.020970294292
1	8	4.664843650425	1.00416129138
1	14	6.40697397199	1.381521300824
1	16	7.097139629266	0.901253212959
1	20	10.017043972537	0.254629895748
1	26	11.734020971464	0.220725057522
1	28	13.163351075985	1.599067240802
1	32	14.219836861569	0.18525886799
1	36	14.744376592398	0.092487962417
1	42	16.420185583708	1.156325560356
1	46	19.486197495623	3.896410316115
1	48	19.490153577924	1.597489135805
1	52	22.002689833689	0.717833930003
1	56	23.778639562756	1.674621776359
1	64	27.481575710933	0.948106719127
1	66	29.582158675112	2.607092541137
1	70	29.927294827712	2.89003843378
1	74	32.425580047687	2.829814888814
1	76	33.679358780954	1.483833551273
1	82	34.534491994071	0.782075378108
1	84	34.687841383907	0.653545753172
1	88	35.56938406313	0.46735236093
1	92	39.240032031181	1.121267855342
1	98	40.455527465297	0.583097392203
1	100	41.024713393134	0.748952976028
1	108	44.735830872024	0.961724865701
1	110	44.803642228698	0.806774957162
1	112	45.854599813879	1.190764425367
1	118	47.022277001685	0.91889148773
1	120	48.658178003842	2.43859296277
1	126	49.857214280399	0.737406646049
1	132	52.250259069245	3.106735310447
1	138	53.070440774291	2.033709193274
1	140	53.428116300499	1.584803005617
1	146	53.957755376377	1.345362651717
1	150	55.721985222191	2.91996132268
1	152	55.770016809492	2.15055316635
1	154	56.349812898689	2.488307896629
1	156	57.334080455803	3.31263644719
1	162	58.649832352227	0.793157922256
1	164	60.360677497569	2.243890137078
1	168	60.970173353802	0.221828840367
1	172	62.99102514133	1.943864325142
1	176	64.392893755807	0.433328674948
1	182	68.9320859638	1.405060112233
1	184	69.283008489203	1.014498489742
1	188	72.242656899908	2.153617588667
1	192	74.600431781109	0.393800857512
1	196	82.538513751255	0.180342592375
1	200	84.116603940587	0.498451250594
1	204	87.887103855003	0.098120541748
1	210	90.212092230221	1.720959892576
1	212	90.375967393451	1.603340782022
1	216	92.958021758135	0.484694123375
1	222	97.51235615744	2.887069976559
1	232	101.904471704055	5.469277034044
1	234	102.066368870388	4.484517504062
1	236	102.355884803681	3.893142760664
1	238	102.543707781721	2.862233704021
1	240	103.453449135403	2.002725577442
1	246	107.28084736046	2.331311326774
1	250	108.045615038236	2.083857098218
1	256	108.937704421556	0.94399192872
1	260	109.733585244545	0.807785950838
1	262	109.869372718739	0.938754096921
1	266	109.952333862021	0.941567016069
1	270	110.316839270347	0.422285879216
1	274	110.718391012554	0.657525037321
1	276	112.204860679658	1.608134901586
1	280	112.794918413084	0.040779506537
1	286	113.799391188335	0.561228401688
1	288	114.17762088301	0.485539911716
1	296	115.669367916606	1.011951623221
1	302	116.544077874333	1.377205303664
1	308	118.663634764158	3.253220439644
1	310	119.405574966236	3.14480288994
1	314	121.510101669356	5.161222350031
1	316	122.050543463569	5.172062927997
1	320	123.272448129044	4.767770626576
1	324	124.991163908598	3.605064843249
1	326	125.135684604764	2.885069147691
1	330	126.046581536057	1.935300544999
1	332	126.350685256881	0.798504689835
1	336	127.766453987723	0.357920447577
1	340	128.100033980815	0.025727926082
1	346	129.847457011571	0.361059633077
1	348	130.12462901001	0.559792504532
1	354	131.188592313943	0.815491532285
1	356	132.02216779973	1.648521887716
1	360	133.203448507902	0.644608945334
1	364	133.853111158206	0.346438911843
1	368	136.326417774139	0.066408069102
1	374	140.417652444865	3.854657478205
1	376	140.832725325046	3.287522762161
1	380	142.255678121801	0.683293151014
1	392	151.634462064407	3.775777218236
1	396	153.439737200798	4.247832826041
1	400	154.066051539939	4.65019790497
1	402	154.163505728349	3.585249536196
1	406	156.087200689221	4.677800609459
1	408	156.157727529016	3.98207603478
1	410	156.569097310895	2.926353164233
1	412	157.19370922886	1.824818437432
1	416	160.749746484951	1.52302686651
1	422	162.358261523707	1.267988113713
1	426	163.240203913716	1.910866031519
1	428	163.278003827245	0.378489890806
1	432	165.882950908737	0.431793268134
1	440	170.29649331641	0.82825853963
1	444	170.970926068249	1.185400465126
1	446	171.000539816423	0.996765537081
1	448	172.119763846703	1.403411324807
1	452	172.325996241762	0.173394004734
1	456	174.011448351082	0.051796235576
1	460	174.832818205793	0.412211645843
1	464	174.988274062015	0.114360649639
1	470	178.78844019456	0.197113792794
1	476	180.958481502543	2.240068796852
1	478	181.354705484965	1.253073315275
1	484	181.601590336086	0.928677913145
1	486	181.951775159532	0.369452335784
1	488	182.064809016155	0.476645501217
1	492	185.745758990544	1.36493703941
1	498	193.683920869379	0.634473241839
1	500	194.595860247653	1.001921712956
1	504	196.397646913155	0.159723060927
1	508	202.992035100573	0.203383597574
1	512	207.204224673393	1.03584069134
1	516	208.588058509225	0.04985013144
1	520	209.297249878963	0.285833788759
1	524	211.252169959535	0.781778453152
1	528	216.705882004676	0.257183053694
1	532	219.310297269418	0.480315069184
1	538	226.08472855089	2.554035335024
1	546	228.679765415144	3.061435119004
1	554	229.442200272973	2.976707099987
1	560	233.254344633839	6.653368751941
1	562	234.116299304619	5.842443052998
1	568	235.685348906078	6.912959374173
1	570	235.724060317269	6.656124411313
1	574	237.822360478148	8.724481499217
1	576	238.699901349923	6.874553465993
1	580	240.373690348179	7.696933386297
1	582	240.58248195862	6.203647079289
1	584	240.74327702678	5.995747896973
1	586	241.210185285534	4.813603552224
1	588	241.769589885374	1.974537777417
1	592	243.446695256242	1.18381098126
1	596	245.100048355157	0.11050678338
1	600	245.980854085281	0.579113807985
1	604	246.651685582663	0.181764284618
1	608	247.702466508583	0.707202752118
1	612	250.825174729833	1.709456382522
1	616	252.101171731617	0.094427978078
1	622	257.218680530717	1.609781703128
1	624	258.051380299655	1.965426798056
1	630	263.514543067068	0.890008435449
1	632	263.73531525844	0.505486064109
1	638	267.789564078996	0.572910720458
1	640	268.140404306299	0.652399180299
1	644	268.453223406818	0.038281136733
1	648	270.675182800145	0.031165475223
1	652	276.67924441637	0.603498455515
1	656	279.078670040291	1.365958852054
1	664	280.759787412988	0.814852563655
1	666	281.199194160019	1.093887469933
1	668	281.38320450331	0.702837023642
1	674	283.474776304207	1.821773331296
1	676	284.388699335704	2.688274389316
1	682	288.697679345568	1.526544600053
1	686	290.584909614776	2.943348405033
1	690	291.509139228524	2.147884931743
1	696	293.028099609989	1.926850662115
1	698	293.820058407534	2.185869088292
1	700	293.841450791657	0.887917163577
1	704	296.254543624807	1.38815450893
1	708	299.168544508134	0.193635883805
1	716	306.238822538289	0.613438460524
1	718	306.255999192001	0.278069951244
1	720	306.917688197076	0.905689992969
1	726	309.311859863015	1.860375347115
1	728	309.504006198745	1.609144874018
1	732	312.485904865366	0.014743019917
1	736	317.442287738239	1.888914220937
1	742	319.227014919576	1.357413763358
1	746	319.837104004499	1.17687195878
1	748	320.376497864959	0.666111007186
1	754	321.540547628067	0.124123790398
1	756	321.954063759383	0.535665611929
1	760	324.289251182584	0.099443660236
1	766	328.22730547739	1.258185689812
1	768	328.307524050527	0.371748094276
1	772	329.099806471749	0.230609173892
1	776	333.420958573713	0.85279079108
1	780	335.764447882967	0.347901480859
1	784	336.845388233441	1.066319571468
1	788	340.212628221337	1.627440705802
1	792	340.8304898507	0.432651589277
1	796	345.725298889125	0.098098479138
1	802	348.378164787056	1.678338382181
1	804	349.914662320704	3.011089370178
1	808	351.93316784502	0.499917186507
1	816	355.907270118883	1.998630136194
1	818	356.104001135595	1.095515556536
1	820	356.401468107444	0.692818051781
1	824	358.446211523703	1.768444922077
1	830	363.287024117768	1.333256878053
1	834	363.995489851067	1.390124505058
1	836	365.029232275325	1.236507022203
1	840	365.915058136056	0.239764119005
1	848	368.83090701867	2.260569715227
1	850	369.115255352724	1.366458398715
1	852	369.49651805789	1.657182122114
1	858	376.605548890259	2.006582364436
1	860	376.977023829128	1.126581748527
1	864	380.165780886274	0.025588555652
1	868	380.589787289863	0.050446451266
1	872	381.624105289597	0.204109400712
1	876	382.219189812059	0.071531814144
1	880	385.035332615651	0.297699314064
1	888	387.810455138149	2.448556168343
1	890	388.115777453718	1.907040433665
1	892	388.255282985166	1.173495450274
1	898	389.96637208787	1.660161207789
1	902	390.482997571727	0.611668745374
1	904	390.507733651344	0.044577914877
1	910	393.136983708218	1.943729797974
1	912	393.457595141927	2.05657159402
1	918	396.080675876568	1.234796218961
1	920	396.520378985446	0.617817453616
1	926	398.535794218291	1.581380534112
1	930	400.397668424506	1.894413600984
1	932	401.170178173365	0.793074291923
1	938	402.877797805056	0.818906601624
1	940	403.008487505025	0.784210244936
1	944	411.396486647426	0.474239663191
1	948	412.393118615027	0.559923663803
1	952	413.287012972604	0.715819563307
1	964	415.822175880442	2.22342806056
1	968	416.132944844551	2.455902712228
1	970	416.153332190566	2.369045437155
1	972	416.684830153928	2.186591659851
1	974	417.214372675486	2.245603481225
1	976	417.418777339853	1.440182255599
1	982	420.965438113804	1.834128371829
1	984	421.807715190456	1.120272953116
1	988	423.320327145203	0.061928819031
1	998	432.056810637883	4.502340597706
1	1000	433.010548105612	5.119325956481
1	1002	433.387289445194	4.273858943239
1	1004	433.846197540711	4.213197800758
1	1008	438.197943811789	1.623414828687
1	1016	443.367298893395	0.987684309616
1	1018	444.365604195316	1.357296046279
1	1020	444.705637162013	1.595541913044
1	1024	446.87455543983	0.321301091975
1	1030	448.420394202049	0.918923936579
1	1036	451.209343155877	3.190739579447
1	1042	452.295808196122	3.733826389804
1	1044	452.426299551084	3.301762574385
1	1046	452.912177656947	1.3304517231
1	1050	453.52600404198	1.332848962319
1	1054	457.207411432891	4.157284571196
1	1056	458.348642247024	1.864304399809
1	1060	461.2070986431	0.214746067746
1	1064	461.677752162481	0.04786677936
1	1068	468.838973607542	3.050060385943
1	1072	471.954175582211	1.956509254075
1	1080	474.843998123272	1.759698021968
1	1082	475.058883927807	1.963334090869
1	1084	475.972519308515	2.293701910825
1	1094	482.994201130495	2.672429786828
1	1096	483.115194655549	1.73502951449
1	1098	484.39977501823	1.835877740809
1	1100	484.865036162899	1.983689411825
1	1106	487.493458362142	1.454830740357
1	1110	487.880801704797	1.841961430274
1	1112	488.897009696041	1.199137757509
1	1118	491.233845757265	0.009263880352
1	1122	492.017935743027	0.788606251656
1	1124	492.430054908782	0.441750001518
1	1132	496.757694408029	2.283020817247
1	1134	497.300400868798	2.035573897589
1	1136	497.785107007178	1.422005391424
1	1140	502.518006999114	0.504376127258
1	1150	508.347648701319	2.275747914639
1	1152	508.867480239021	2.566259475207
1	1154	508.94142116957	0.93535987349
1	1156	509.080885033255	0.953576956016
1	1160	510.061953991706	0.09098588925
1	1166	512.229967515137	1.532311560046
1	1168	512.593197259216	0.620626790395
1	1172	513.969720308713	0.877204333039
1	1178	518.0875867098	2.107562686193
1	1184	520.214472621185	3.687085446938
1	1186	520.61279703447	2.286201664894
1	1194	521.649076272117	2.835819736947
1	1196	522.00216351352	1.351548778043
1	1198	522.949531972011	2.157486926078
1	1204	524.126455941505	3.217821297137
1	1208	525.2891796404	1.793816192414
1	1210	525.445855222956	1.701620423132
1	1212	526.168974611202	2.005692728616
1	1216	528.828333180045	1.415871632488
1	1220	534.176559231321	0.195757920154
1	1224	537.070698936242	0.086233815556
1	1228	542.315703039629	0.657918986187
1	1232	545.478839260078	0.752587007458
1	1240	547.339341626199	1.191742143806
1	1244	548.298398606619	1.867739590472
1	1248	549.763492308545	2.810597124069
1	1250	550.534395725933	3.123273845837
1	1252	550.577029585471	0.940247959837
1	1260	556.096005119565	3.306546638058
1	1262	556.61814671021	2.911853445637
1	1264	557.418123897869	1.496410437225
1	1268	563.398248484356	0.06710926941
1	1272	564.637687301141	0.423481620007
1	1276	566.710258894758	0.020641541597
1	1280	569.932922573294	1.61370606867
1	1284	580.163788409686	0.233101840231
1	1288	581.021613697312	0.154612050756
1	1292	584.484779074774	1.203619490988
1	1296	584.911331943768	0.059696724394
1	1300	586.323520222833	0.296531201904
1	1304	587.456396578838	0.714027219156
1	1310	593.977459548606	5.351460539185
1	1312	594.135887658584	3.419756120208
1	1316	595.403022431347	0.596955170582
1	1322	597.530138224962	0.919898170623
1	1324	597.632472762189	0.693144520467
1	1328	600.695480633342	0.340710031552
1	1332	601.980132745293	1.275826556215
1	1338	603.66632048775	0.800300550934
1	1342	605.490047586928	2.235316184424
1	1344	606.35833739563	1.779538825506
1	1348	607.283254800774	0.204041833055
1	1354	609.347508577266	0.955816987345
1	1358	611.527478619899	2.832376638522
1	1360	612.254781056223	0.935171406255
1	1364	615.64927025179	0.983883699601
1	1368	617.94211217477	0.703316948977
1	1378	621.870850378522	2.404203488624
1	1380	622.637576759573	2.557572075292
1	1382	623.362734155333	2.636599127318
1	1384	623.782262368166	1.989628141213
1	1388	625.617926369827	0.138775723327
1	1392	630.08785650043	1.087143553726
1	1398	633.731491578639	2.743729150676
1	1400	634.680122616409	2.131080020596
1	1404	637.891827920664	1.849845231053
1	1408	638.553032926446	0.245783456032
1	1414	643.012215010684	2.334816353967
1	1416	643.022033026427	1.849816943058
1	1420	646.040488483729	0.255941479131
1	1424	646.208417095597	0.141627080802
1	1432	648.717725826902	2.381011001233
1	1434	648.726228787729	2.056939739588
1	1436	649.596251371627	2.084352864939
1	1440	652.424481138554	0.091559578551
1	1444	652.740531024027	0.124293546994
1	1448	656.676505119643	1.474344482974
1	1460	660.060985203651	1.319740153406
1	1464	660.410918355639	1.642432261393
1	1466	660.555694360415	1.648468494275
1	1468	660.696649351418	1.607103483657
1	1470	661.789829543807	2.463043495776
1	1472	662.561657297092	2.350208869915
1	1478	664.584293775823	1.405369419072
1	1482	664.902471038051	0.96222404984
1	1488	665.738373732096	1.005991958353
1	1492	667.090602574783	2.004607273128
1	1496	668.331074246088	3.112656361345
1	1498	669.007336657383	2.493775479881
1	1502	670.190648900206	2.050428440835
1	1504	671.457338520294	2.15484698262
1	1508	674.646046986156	1.412155321012
1	1512	674.688975058855	0.038036308296
1	1518	677.502925870546	1.135801504999
1	1520	678.151521953015	1.19861309549
1	1524	679.198242565226	0.105550968926
1	1532	682.157392321666	0.952426418619
1	1534	683.212021633949	1.87520401336
1	1536	684.535882339765	3.127099882929
1	1540	685.436012578908	0.387967460953
1	1544	685.911268786214	0.070267225741
1	1548	690.799590392254	0.038044847344
1	1552	693.902475193699	0.818994568321
1	1556	695.113897069249	0.175369013458
1	1560	701.94862190516	0.311822027592
1	1564	705.552008701964	0.268810546844
1	1568	707.362644558144	0.019537071294
1	1572	708.097091564611	0.164504933649
1	1576	708.800873561083	0.03449053126
1	1582	713.35196638754	4.008250550234
1	1584	713.799012082655	3.781152103688
1	1590	716.911158278626	1.745627264362
1	1592	717.442590453652	1.545763298617
1	1596	717.868273231584	0.291929942884
1	1600	718.763626121681	0.270118391063
1	1608	723.143385532334	1.483314663837
1	1610	724.382204621554	2.652835387785
1	1614	725.607506220454	3.390732672114
1	1620	727.525886736129	3.084155815944
1	1624	728.970289704433	2.551575841246
1	1630	731.235124789531	4.396654565152
1	1632	732.290662793403	3.975696078955
1	1634	732.540115040515	3.055595178479
1	1638	734.093900087913	2.995635319435
1	1644	736.322022207936	3.013358491623