version 3
run General-29-20221103-09:44:58-15908
attr configname General
attr datetime 20221103-09:44:58
attr datetimef 20221103-094458
attr experiment General
attr inifile simu_1.ini
attr iterationvars ""
attr iterationvarsd ""
attr iterationvarsf ""
attr measurement ""
attr network Rete
attr processid 15908
attr repetition 29
attr replication #29
attr resultdir results
attr runnumber 29
attr seedset 29
config network Rete
config record-eventlog true
config repeat 30
config sim-time-limit 1000s
config simtime-resolution ps
config **.Servente.serviceTime exponential(1s)
config **.Arrivi.interArrivalTime exponential(2s)

vector 0 Rete.Servente queueLength:vector ETV
attr interpolationmode sample-hold
attr recordingmode vector
attr title "queue length"
vector 1 Rete.Pozzo lifeTime:vector ETV
attr interpolationmode none
attr recordingmode vector
attr title "lifetime of arrived jobs"
attr unit s
0	0	0	0
0	24	18.042918870209	1
0	25	18.536046335974	0
0	44	31.651091664947	1
0	46	32.031833511702	2
0	48	32.152134751291	3
0	49	32.645259889757	2
0	52	33.022366756984	3
0	53	33.172331646707	2
0	55	34.115665454425	1
0	57	34.277912586594	0
0	60	34.413056278638	1
0	62	34.463900413126	2
0	63	34.573512429261	1
0	65	34.644631800069	0
0	68	35.136726285583	1
0	69	35.798113481189	0
0	76	46.578262335096	1
0	77	47.480169599631	0
0	84	49.26548661413	1
0	86	50.540704335699	2
0	87	51.246167632346	1
0	89	52.727030965972	0
0	92	53.830473516482	1
0	94	54.838511884226	2
0	95	55.850878587658	1
0	98	56.164636457566	2
0	99	57.128765105202	1
0	101	57.625306149637	0
0	104	58.337454565397	1
0	105	58.948838536255	0
0	108	59.271089421357	1
0	109	59.576407973224	0
0	116	62.081727869178	1
0	117	62.107813379253	0
0	120	62.115377564291	1
0	121	62.245972341508	0
0	132	69.778455736192	1
0	133	70.005133334715	0
0	140	72.872150245576	1
0	141	73.839347735576	0
0	156	80.530696078957	1
0	157	80.916732436849	0
0	164	82.809267591752	1
0	165	85.170034602533	0
0	172	88.217221106475	1
0	174	89.66282444406	2
0	176	89.904316989992	3
0	177	91.69482436643	2
0	180	94.59756813511	3
0	182	94.894271734469	4
0	183	95.218704293156	3
0	186	99.027111643381	4
0	187	100.27017543145	3
0	189	101.08355164177	2
0	191	101.353485055993	1
0	193	104.072671979868	0
0	196	104.91195120567	1
0	197	106.021338002485	0
0	200	107.138862535586	1
0	202	107.346023205531	2
0	203	107.648588555486	1
0	206	107.70189707256	2
0	207	107.720167911929	1
0	210	108.403924950055	2
0	212	110.078390514729	3
0	213	111.426730627236	2
0	216	111.670488290516	3
0	218	111.758406933835	4
0	220	111.835688205811	5
0	222	113.170657726347	6
0	223	113.533442530243	5
0	226	114.062050444992	6
0	228	116.182366741893	7
0	229	116.246307006414	6
0	231	117.606889877198	5
0	233	119.17903910608	4
0	236	119.470794774229	5
0	238	120.18241688138	6
0	240	120.44687448047	7
0	241	122.436932129851	6
0	243	122.947618071428	5
0	246	123.126667788452	6
0	247	124.646010828318	5
0	249	124.695943727687	4
0	252	124.738706943929	5
0	253	125.341956772026	4
0	256	125.871785454544	5
0	257	126.041497721628	4
0	259	126.538349621838	3
0	261	128.477554346119	2
0	264	130.844675866641	3
0	265	132.205651589783	2
0	267	132.243474906689	1
0	269	133.153916031594	0
0	272	133.243771007414	1
0	273	133.34558592757	0
0	288	136.75277343678	1
0	289	138.190395042528	0
0	292	138.473513321136	1
0	293	139.544670650019	0
0	336	180.007544427805	1
0	338	180.231252501303	2
0	339	181.26973694828	1
0	341	181.272237121089	0
0	344	181.606513131262	1
0	345	181.730073760131	0
0	348	182.7372141355	1
0	350	183.994268205573	2
0	352	185.005198063172	3
0	353	185.431558405053	2
0	355	185.583645361947	1
0	357	185.800332762843	0
0	360	186.990915318067	1
0	361	187.832567868014	0
0	364	188.837318992388	1
0	365	188.920046312219	0
0	368	190.345787255206	1
0	370	190.384946182822	2
0	372	190.452671343925	3
0	373	190.781541917182	2
0	376	190.905254800635	3
0	377	191.25129216119	2
0	379	191.434999047418	1
0	382	192.413495107987	2
0	384	194.610000124085	3
0	385	196.416571888932	2
0	388	196.419534337777	3
0	389	196.743293532337	2
0	391	196.828639973666	1
0	393	197.455102051153	0
0	400	200.493794241816	1
0	402	201.82652357076	2
0	404	204.47139330632	3
0	406	204.656811565235	4
0	407	207.134250132991	3
0	410	207.47037841923	4
0	412	209.08333904355	5
0	414	210.142813799473	6
0	415	210.254395995051	5
0	417	210.802204972717	4
0	420	211.872003431196	5
0	422	211.881410684549	6
0	423	212.217840396982	5
0	425	212.511725629475	4
0	427	213.15999011169	3
0	430	213.272374882689	4
0	431	214.344323404131	3
0	433	214.437830307248	2
0	435	215.093452461422	1
0	437	216.102196329162	0
0	460	227.212899544439	1
0	461	227.939273167541	0
0	464	228.172487801998	1
0	466	228.296901903438	2
0	467	230.391656945201	1
0	470	230.401430996123	2
0	472	232.535348533351	3
0	473	233.442471142542	2
0	476	233.815119412479	3
0	477	234.660445031401	2
0	480	235.060877068891	3
0	481	235.289617652658	2
0	484	236.011692651247	3
0	486	236.334688706413	4
0	487	236.48261618087	3
0	490	237.257800572256	4
0	491	237.744272777919	3
0	494	238.606277036919	4
0	495	239.177921188558	3
0	497	240.311416295817	2
0	499	240.38197462924	1
0	502	240.718268204688	2
0	504	242.248521138734	3
0	505	243.816165930145	2
0	507	245.140493393183	1
0	509	246.348196318706	0
0	528	259.072255963881	1
0	529	261.022452323644	0
0	544	266.124756849678	1
0	545	266.216853529113	0
0	548	266.378356770605	1
0	549	267.219235992085	0
0	552	268.374636986209	1
0	553	269.117677461122	0
0	588	289.288230023541	1
0	589	289.859205550115	0
0	596	294.781122426911	1
0	597	295.946454037086	0
0	608	302.839159069849	1
0	610	303.604839860038	2
0	611	303.733635241695	1
0	614	306.255008748036	2
0	616	306.378208219273	3
0	617	307.227521987689	2
0	619	307.294604159671	1
0	622	310.604535156867	2
0	623	310.689806499679	1
0	626	311.345017667494	2
0	628	311.40992038971	3
0	629	311.582178587574	2
0	632	313.872470545174	3
0	634	314.770328231129	4
0	636	315.543212281836	5
0	637	315.796436583664	4
0	639	316.79690134398	3
0	641	318.365405903149	2
0	643	318.457457341555	1
0	645	318.670515199225	0
0	680	334.212769251284	1
0	681	336.17460159194	0
0	688	345.033643708422	1
0	689	345.807809111675	0
0	712	359.082719606833	1
0	713	360.486599634771	0
0	716	361.560719737741	1
0	717	362.181475226276	0
0	736	376.123935661266	1
0	738	376.508658605476	2
0	740	376.696808852234	3
0	741	376.793369864217	2
0	744	376.938031919727	3
0	746	377.945131886471	4
0	747	380.726328668199	3
0	750	381.337680543685	4
0	752	382.109352608727	5
0	753	382.348092916647	4
0	755	382.639147310377	3
0	758	383.458983832534	4
0	760	384.42477973429	5
0	761	384.881858582671	4
0	763	385.168516716313	3
0	766	386.921435638045	4
0	767	387.651124695225	3
0	769	389.757776608998	2
0	771	389.817908170752	1
0	773	391.007010485026	0
0	784	394.981204392415	1
0	786	395.050305236594	2
0	787	395.159976597994	1
0	790	395.673698646332	2
0	792	395.859366780565	3
0	794	395.946505033964	4
0	796	397.392431920683	5
0	798	397.48622865977	6
0	799	398.1578881215	5
0	802	398.218199073246	6
0	803	400.711498553543	5
0	805	403.974314813578	4
0	807	404.305133235091	3
0	809	404.547777958617	2
0	812	404.66479843245	3
0	813	405.445683595798	2
0	815	406.029230104519	1
0	817	406.6347201207	0
0	820	406.828792027458	1
0	821	411.005847536484	0
0	824	411.030052231715	1
0	825	412.895448600415	0
0	836	418.223699558341	1
0	837	418.755071086298	0
0	840	418.91087825831	1
0	841	419.416219479549	0
0	856	428.771785529831	1
0	857	428.861044215086	0
0	864	430.947584866992	1
0	866	431.005280141622	2
0	868	432.14703292696	3
0	870	432.799895429809	4
0	871	433.974349199967	3
0	873	436.21931548217	2
0	875	436.366043714288	1
0	877	436.892271549006	0
0	880	436.965494356234	1
0	882	437.214493786092	2
0	883	438.307115032101	1
0	885	438.541190464821	0
0	892	439.829676252911	1
0	894	440.313829939835	2
0	896	440.364812635682	3
0	897	440.457291890971	2
0	900	440.552816330627	3
0	901	441.41231497206	2
0	903	441.486632939455	1
0	905	441.521812717095	0
0	916	446.4766265746	1
0	918	446.636474651738	2
0	920	446.740714467391	3
0	921	447.094889169623	2
0	923	447.178152317379	1
0	925	447.508927458098	0
0	932	448.236149979588	1
0	934	448.707979529043	2
0	935	450.280695371871	1
0	938	451.877619435943	2
0	939	452.422884903805	1
0	941	452.727222734793	0
0	944	453.307585578744	1
0	946	453.625183813589	2
0	948	454.608593493346	3
0	950	454.917726107487	4
0	951	455.329695554559	3
0	954	456.399986768252	4
0	955	458.360149364725	3
0	957	459.58607211223	2
0	959	460.134049403301	1
0	961	460.48041505902	0
0	976	472.274375669861	1
0	977	472.974040086146	0
0	1000	484.666739702288	1
0	1001	484.897509752905	0
0	1032	512.584497160338	1
0	1033	513.080097834646	0
0	1036	513.159892833864	1
0	1037	514.53406573605	0
0	1044	515.895845524409	1
0	1045	517.544807502564	0
0	1048	517.668449898816	1
0	1049	517.894319332314	0
0	1068	533.052215107521	1
0	1069	533.239632028785	0
0	1088	546.436770900188	1
0	1089	546.987195898678	0
0	1096	550.689206750583	1
0	1097	551.182067789686	0
0	1100	552.415927830514	1
0	1101	552.794544186802	0
0	1128	562.422102457347	1
0	1130	563.337837833073	2
0	1131	564.098083567542	1
0	1133	565.10069737293	0
0	1144	570.702244989021	1
0	1145	570.768376701464	0
0	1168	589.062133930661	1
0	1169	589.184632640348	0
0	1180	598.764281198474	1
0	1181	599.036995690616	0
0	1184	599.832207385757	1
0	1185	600.032045545995	0
0	1192	603.14996905742	1
0	1193	603.796780886677	0
0	1196	604.678153428098	1
0	1197	605.634961254061	0
0	1212	611.324575948404	1
0	1214	611.665485595971	2
0	1216	611.984333643412	3
0	1217	612.048064533557	2
0	1219	612.123769729237	1
0	1221	613.097877150909	0
0	1272	641.291837363182	1
0	1273	641.343301216605	0
0	1276	641.489293759088	1
0	1277	643.998031516089	0
0	1304	654.339470134781	1
0	1306	654.439010428986	2
0	1307	654.767529255508	1
0	1309	654.945730805999	0
0	1312	655.696230194766	1
0	1313	655.713929018688	0
0	1316	655.727781460942	1
0	1317	657.191381945947	0
0	1324	666.645328699683	1
0	1326	667.276569875932	2
0	1327	668.321480622387	1
0	1329	668.775947185881	0
0	1332	669.269542886801	1
0	1333	670.345630759473	0
0	1344	676.098163266009	1
0	1345	677.475212615908	0
0	1356	682.325183072819	1
0	1357	682.420813722029	0
0	1360	682.473308855671	1
0	1361	682.640843904948	0
0	1368	684.112603518599	1
0	1369	684.242254480281	0
0	1380	690.651468475221	1
0	1381	690.777904970225	0
0	1384	691.097999943765	1
0	1386	691.110221516976	2
0	1387	691.409977223052	1
0	1390	691.698928856723	2
0	1391	691.942676933466	1
0	1393	692.238173272884	0
0	1396	692.57689183482	1
0	1397	693.057328732508	0
0	1400	693.292253933156	1
0	1401	694.59393233457	0
0	1408	697.104956964594	1
0	1409	697.119909859044	0
0	1444	723.52418418124	1
0	1445	724.36978910764	0
0	1452	725.545055824055	1
0	1453	727.71405049241	0
0	1456	729.378562814888	1
0	1458	730.125071923779	2
0	1459	730.504552396164	1
0	1461	730.708864885396	0
0	1464	731.254088205144	1
0	1465	731.292707072827	0
0	1492	743.332089493215	1
0	1493	743.585520666027	0
0	1516	761.279622953253	1
0	1517	761.324806493776	0
0	1524	762.876830373056	1
0	1525	763.151588939964	0
0	1528	763.451930674914	1
0	1529	763.479929988689	0
0	1532	763.737853259925	1
0	1533	764.135003392081	0
0	1536	765.08153013286	1
0	1538	766.047824512591	2
0	1539	766.146958477876	1
0	1542	766.232247002589	2
0	1543	766.469924896446	1
0	1546	766.58921289263	2
0	1547	767.826189371078	1
0	1549	768.077976774499	0
0	1564	797.045793509513	1
0	1565	797.093864053658	0
0	1568	797.566583527964	1
0	1569	797.964285370977	0
0	1616	843.619418204657	1
0	1618	844.112268336274	2
0	1620	845.990193390863	3
0	1621	846.576064244558	2
0	1623	846.764680020703	1
0	1625	847.757463454642	0
0	1640	853.742220002912	1
0	1641	854.501591267311	0
0	1652	858.338559551455	1
0	1653	860.512495610336	0
0	1676	872.577853275528	1
0	1677	875.7700258243	0
0	1684	880.263973999543	1
0	1685	880.452253355411	0
0	1688	880.999861565453	1
0	1689	881.321803061711	0
0	1728	905.552374556079	1
0	1729	905.903064125109	0
0	1748	924.174059509149	1
0	1749	924.836722197376	0
0	1760	940.91291573231	1
0	1761	941.684412111767	0
0	1772	945.173052486775	1
0	1774	945.631786715208	2
0	1775	945.994082353917	1
0	1778	946.091718505489	2
0	1780	947.95609644344	3
0	1781	948.252218370683	2
0	1783	948.320713685964	1
0	1785	948.994703914419	0
0	1792	953.540140283008	1
0	1793	954.41686591628	0
0	1796	954.993864579245	1
0	1797	955.476932300735	0
0	1816	960.847046215337	1
0	1818	961.602488976255	2
0	1819	962.826789656437	1
0	1821	963.303353176831	0
0	1828	966.918072105285	1
0	1829	967.534141187642	0
0	1832	968.370102300573	1
0	1833	968.536787516445	0
0	1840	974.875317004679	1
0	1841	975.102166749766	0
0	1860	984.6259422711	1
0	1861	984.692643948948	0
0	1864	986.618274393533	1
0	1865	987.201806749226	0
1	4	4.322015485713	0.335341228069
1	8	7.286928701692	0.076078322674
1	12	9.502369555486	1.440696485769
1	16	15.683278786971	0.602793005254
1	20	17.209818014482	0.781534506859
1	26	18.536046335974	1.296950221679
1	28	20.425893554346	2.382974684137
1	32	23.361462559982	1.461880247846
1	36	26.784129975728	1.321045055163
1	40	27.964579895851	0.277053988998
1	50	32.645259889757	1.274068771922
1	54	33.172331646707	1.52123998176
1	56	34.115665454425	2.083831942723
1	58	34.277912586594	2.125777835303
1	64	34.573512429261	1.551145672277
1	66	34.644631800069	0.231575521431
1	70	35.798113481189	1.334213068063
1	72	37.636459866122	2.499733580539
1	78	47.480169599631	1.656285412041
1	80	47.480233098755	0.901970763659
1	88	51.246167632346	2.571904715049
1	90	52.727030965972	3.461544351842
1	96	55.850878587658	5.310174251959
1	100	57.128765105202	3.29829158872
1	102	57.625306149637	2.786794265411
1	106	58.948838536255	2.784202078689
1	110	59.576407973224	1.238953407827
1	112	61.21346479397	1.942375372613
1	118	62.107813379253	0.576231249669
1	122	62.245972341508	0.16424447233
1	124	63.273615308985	1.158237744694
1	128	65.913622875779	0.651321607233
1	134	70.005133334715	1.073297735685
1	136	70.092166094084	0.313710357892
1	142	73.839347735576	1.089820458515
1	144	74.514537282133	1.642387036557
1	148	76.340180888665	1.407781740946
1	152	78.740604876204	0.558394292479
1	158	80.916732436849	0.400194916548
1	160	81.566245622159	1.035549543202
1	166	85.170034602533	2.519956234713
1	168	85.537535710201	2.728268118449
1	178	91.69482436643	4.194339379514
1	184	95.218704293156	7.001483186681
1	188	100.27017543145	10.60735098739
1	190	101.08355164177	11.179234651778
1	192	101.353485055993	6.755916920883
1	194	104.072671979868	9.178400245399
1	198	106.021338002485	6.994226359104
1	204	107.648588555486	2.736637349816
1	208	107.720167911929	0.581305376343
1	214	111.426730627236	4.080707421705
1	224	113.533442530243	5.831545457683
1	230	116.246307006414	7.842382056359
1	232	117.606889877198	7.528499362469
1	234	119.17903910608	7.508550815564
1	242	122.436932129851	10.678525196016
1	244	122.947618071428	11.111929865617
1	248	124.646010828318	11.475353101971
1	250	124.695943727687	10.633893282695
1	254	125.341956772026	9.159590030133
1	258	126.041497721628	6.570702947399
1	260	126.538349621838	6.355932740458
1	262	128.477554346119	8.030679865649
1	266	132.205651589783	9.078983801331
1	268	132.243474906689	7.50476796276
1	270	133.153916031594	7.28213057705
1	274	133.34558592757	2.500910060929
1	276	133.830266096754	0.58649508934
1	280	134.64757620177	0.702592284671
1	284	136.065098775575	0.463054665163
1	290	138.190395042528	1.521774254453
1	294	139.544670650019	2.791897213239
1	296	139.549522139715	1.076008818579
1	300	141.996657974144	1.021778931963
1	304	143.768435336856	0.552492702426
1	308	144.730008107771	0.305431036429
1	312	145.637959894359	0.31364207358
1	316	151.867940419401	0.003205499454
1	320	162.706539548239	0.641283725962
1	324	165.066923864533	0.777125386992
1	328	170.982037281692	1.655618595914
1	332	172.994043549533	0.469446424832
1	340	181.26973694828	2.22362686227
1	342	181.272237121089	1.264692693284
1	346	181.730073760131	1.498821258828
1	354	185.431558405053	3.825045273791
1	356	185.583645361947	2.846431226447
1	358	185.800332762843	1.80606455727
1	362	187.832567868014	2.827369804842
1	366	188.920046312219	1.929130994152
1	374	190.781541917182	1.944222924794
1	378	191.25129216119	0.905504905984
1	380	191.434999047418	1.050052864596
1	386	196.416571888932	5.963900545007
1	390	196.743293532337	5.838038731702
1	392	196.828639973666	4.415144865679
1	394	197.455102051153	2.845101927068
1	396	198.507311421255	2.087777083478
1	408	207.134250132991	7.024733637238
1	416	210.254395995051	9.760601753235
1	418	210.802204972717	8.975681401957
1	424	212.217840396982	7.746447090662
1	426	212.511725629475	7.85491406424
1	428	213.15999011169	5.68961169246
1	432	214.344323404131	5.260984360581
1	434	214.437830307248	4.295016507775
1	436	215.093452461422	3.221449030226
1	438	216.102196329162	4.220785644613
1	440	216.334183412313	3.061808529624
1	444	218.799221987001	0.47287304091
1	448	219.798878956698	0.15126258433
1	452	220.701029850971	0.861972951264
1	456	221.496821702297	0.031089838253
1	462	227.939273167541	2.058142351659
1	468	230.391656945201	3.178757400762
1	474	233.442471142542	5.269983340544
1	478	234.660445031401	6.363543127963
1	482	235.289617652658	4.888186656535
1	488	236.48261618087	3.947267647519
1	492	237.744272777919	3.92915336544
1	496	239.177921188558	4.117044119667
1	498	240.311416295817	4.29972364457
1	500	240.38197462924	4.047285922827
1	506	243.816165930145	6.558365357889
1	508	245.140493393183	6.534216356264
1	510	246.348196318706	5.629928114018
1	512	246.904929815798	4.656408677064
1	516	248.056943177856	1.052696495655
1	520	252.45737574754	0.858721547492
1	524	254.73390878254	0.312233911008
1	530	261.022452323644	2.216115965726
1	532	261.200202612876	2.127946648995
1	536	262.108268759934	0.483505159704
1	540	264.589476746446	0.040413043499
1	546	266.216853529113	0.625817559528
1	550	267.219235992085	1.094479142407
1	554	269.117677461122	2.739320690517
1	556	270.011692433012	1.637055446803
1	560	271.613933800123	0.31147113944
1	564	278.529014278321	0.395943399769
1	568	280.297725399513	0.092566829274
1	572	282.236117278323	1.018351845077
1	576	284.498736710058	0.856632060911
1	580	286.698787483491	1.185175021485
1	584	288.010518556644	1.1509916291
1	590	289.859205550115	1.17202498619
1	592	292.02374458106	2.735514557519
1	598	295.946454037086	2.189124062934
1	600	296.024763143291	1.24364071638
1	604	298.336327678397	1.298038383942
1	612	303.733635241695	2.754227926868
1	618	307.227521987689	4.38836291784
1	620	307.294604159671	3.689764299633
1	624	310.689806499679	4.434797751643
1	630	311.582178587574	5.203970368301
1	638	315.796436583664	5.191901426797
1	640	316.79690134398	5.451883676486
1	642	318.365405903149	6.955485513439
1	644	318.457457341555	4.584986796381
1	646	318.670515199225	3.900186968096
1	648	319.985998626886	4.44278634505
1	652	320.776594826496	0.418510769272
1	656	323.65498665247	1.666126766889
1	660	324.282770536316	0.307842100625
1	664	324.941752816816	0.063680036232
1	668	325.924596168296	0.17689768339
1	672	327.341455717507	0.048488027982
1	676	331.210480343648	0.395093202794
1	682	336.17460159194	3.221092311687
1	684	337.277785463437	3.065016212153
1	690	345.807809111675	1.07675861877
1	692	345.999285105204	0.965641396782
1	696	349.533227169348	0.001929240238
1	700	349.976012028305	0.247041263855
1	704	353.623476273635	0.218704133571
1	708	356.207955530505	1.796724809911
1	714	360.486599634771	2.864029070429
1	718	362.181475226276	3.098755619443
1	720	364.2881622343	2.727442496559
1	724	367.212981374189	1.300483350358
1	728	368.054907169816	0.152778811243
1	732	371.262419843578	0.120944462682
1	742	376.793369864217	1.925231419694
1	748	380.726328668199	4.602393006933
1	754	382.348092916647	5.839434311171
1	756	382.639147310377	5.942338458143
1	762	384.881858582671	7.943826662944
1	764	385.168516716313	7.223384829842
1	768	387.651124695225	6.31344415154
1	770	389.757776608998	7.648424000271
1	772	389.817908170752	6.358924338218
1	774	391.007010485026	6.582230750736
1	776	391.406747985713	4.485312347668
1	780	394.653790855017	0.077908761741
1	788	395.159976597994	0.200170549175
1	800	398.1578881215	3.176683729085
1	804	400.711498553543	5.661193316949
1	806	403.974314813578	8.300616167246
1	808	404.305133235091	8.445766454526
1	810	404.547777958617	8.601272924653
1	814	405.445683595798	8.053251675115
1	816	406.029230104519	8.543001444749
1	818	406.6347201207	8.416521047454
1	822	411.005847536484	6.341049104034
1	826	412.895448600415	6.066656572957
1	828	413.678307139694	2.648254907979
1	832	415.717193711961	0.072161896321
1	838	418.755071086298	0.603940254192
1	842	419.416219479549	1.192519921208
1	844	419.953199964581	1.042321706271
1	848	422.666922414518	0.291201061544
1	852	426.023762092144	1.618292493385
1	858	428.861044215086	0.478529015241
1	860	428.968853137982	0.197067608151
1	872	433.974349199967	3.037610621635
1	874	436.21931548217	5.271730615178
1	876	436.366043714288	5.360763572666
1	878	436.892271549006	4.745238622046
1	884	438.307115032101	5.507219602292
1	886	438.541190464821	1.575696108587
1	888	438.581313219291	1.366819433199
1	898	440.457291890971	1.421778387995
1	902	441.41231497206	1.582638719149
1	904	441.486632939455	1.17280299962
1	906	441.521812717095	1.157000081413
1	908	442.758559363601	2.205743032974
1	912	445.597527711652	0.158172815003
1	922	447.094889169623	1.280347270991
1	924	447.178152317379	0.701525742779
1	926	447.508927458098	0.87245280636
1	928	447.759299350766	1.018584883375
1	936	450.280695371871	2.169630071584
1	940	452.422884903805	4.186734924217
1	942	452.727222734793	4.01924320575
1	952	455.329695554559	3.452076118616
1	956	458.360149364725	5.052563785981
1	958	459.58607211223	5.960888298641
1	960	460.134049403301	5.525455909955
1	962	460.48041505902	5.562688951533
1	964	460.856884161728	4.456897393476
1	968	465.311115465044	0.361578698984
1	972	468.451649781277	0.863610495861
1	978	472.974040086146	0.757199989666
1	980	473.012528378048	0.738152708187
1	984	474.715434851744	1.62549933314
1	988	475.521363924977	0.228822119445
1	992	477.246374865655	0.351955098091
1	996	478.555053964934	0.067313014639
1	1002	484.897509752905	0.714954899883
1	1004	485.860463628172	1.193723925884
1	1008	492.11871964788	1.588929265935
1	1012	494.917748103961	0.28802133413
1	1016	497.293999213973	0.81718205768
1	1020	500.539989865884	2.17090822927
1	1024	502.625353062668	1.974874006127
1	1028	509.698625014306	1.588678117077
1	1034	513.080097834646	0.880315942822
1	1038	514.53406573605	1.949568575712
1	1040	514.776611697158	1.616718863294
1	1046	517.544807502564	2.149212276576
1	1050	517.894319332314	1.998473807905
1	1052	518.06260806079	0.394158161974
1	1056	519.193482981621	0.402504080801
1	1060	522.960180373211	0.485357719239
1	1064	530.680808053323	0.380891401223
1	1070	533.239632028785	0.221176021719
1	1072	534.003536027338	0.951320919817
1	1076	535.96990932453	0.561698045547
1	1080	537.676390775158	0.34574256669
1	1084	544.130614559629	0.434976220245
1	1090	546.987195898678	2.459983488841
1	1092	547.262325814036	0.825554913848
1	1098	551.182067789686	1.431970305654
1	1102	552.794544186802	2.105337436219
1	1104	552.990600449247	0.574672618733
1	1108	553.857617330278	0.809019405191
1	1112	556.127797438999	0.62028304703
1	1116	556.435222474102	0.227709404256
1	1120	558.851133972579	0.269167588828
1	1124	561.638651832395	0.005345599745
1	1132	564.098083567542	1.770036568962
1	1134	565.10069737293	2.678594915583
1	1136	566.937873775321	3.600035942248
1	1140	567.902003322223	0.283061884032
1	1146	570.768376701464	0.997514474884
1	1148	571.123475091073	0.421230102052
1	1152	572.366613243515	0.003019911951
1	1156	580.385538238689	2.429273487768
1	1160	582.388818535937	0.249672196167
1	1164	583.699435859258	0.656230802117
1	1170	589.184632640348	0.215566370606
1	1172	590.941057177041	1.87892324638
1	1176	594.303753603919	0.87170470117
1	1182	599.036995690616	1.173817894835
1	1186	600.032045545995	1.267764347521
1	1188	601.093597403054	1.261390017297
1	1194	603.796780886677	0.844163513483
1	1198	605.634961254061	2.484992196641
1	1200	606.723164436276	2.045011008178
1	1204	607.022925776081	0.167777540223
1	1208	608.920313338978	0.376047224535
1	1218	612.048064533557	0.92371155801
1	1220	612.123769729237	0.799193780833
1	1222	613.097877150909	1.432391554938
1	1224	613.142096055965	1.157762412553
1	1228	614.297474608697	0.770418579568
1	1232	618.57525176442	0.538515602642
1	1236	621.869348806831	2.083465643205
1	1240	623.016795086291	0.439639037546
1	1244	624.070643660161	0.154979768736
1	1248	626.444844046707	0.515139102066
1	1252	629.242859779495	0.861559761281
1	1256	634.731921575505	0.873451410258
1	1260	635.090462274848	0.256695671375
1	1264	638.345518731403	0.741661040312
1	1268	639.201055841231	0.385425052998
1	1274	641.343301216605	1.226302504577
1	1278	643.998031516089	2.706194152907
1	1280	644.407682393064	2.918388633976
1	1284	645.597670328397	0.167782451878
1	1288	647.884886618151	0.993578537145
1	1292	650.152922202686	0.025324210394
1	1296	652.102714865919	0.26162231613
1	1300	653.048223942554	0.876357704443
1	1308	654.767529255508	1.418419700003
1	1310	654.945730805999	0.606260671218
1	1314	655.713929018688	1.274918589702
1	1318	657.191381945947	1.495151751181
1	1320	657.461858716307	1.734077255365
1	1328	668.321480622387	3.073431279148
1	1330	668.775947185881	2.130618486198
1	1334	670.345630759473	3.069060883541
1	1336	670.976763367747	1.707220480946
1	1340	671.259302343469	0.215060903189
1	1346	677.475212615908	4.130607992274
1	1348	677.5333888433	1.435225577291
1	1352	681.93915818035	0.507156790375
1	1358	682.420813722029	0.165311210816
1	1362	682.640843904948	0.315660832129
1	1364	683.635888870143	1.162580014472
1	1370	684.242254480281	0.310413110193
1	1372	684.563678377874	0.451074859275
1	1376	687.058113743536	0.620895931171
1	1382	690.777904970225	0.496305487677
1	1388	691.409977223052	0.758508747831
1	1392	691.942676933466	0.844676989701
1	1394	692.238173272884	1.127951755908
1	1398	693.057328732508	1.358399875785
1	1402	694.59393233457	2.01704049975
1	1404	696.126618089636	2.83436415648
1	1410	697.119909859044	0.117306204545
1	1412	697.683915705874	0.57895874128
1	1416	704.193610840792	0.166320962314
1	1420	707.848781995741	0.298177717976
1	1424	714.126978257455	0.956014540977
1	1428	715.871076356563	1.150548216842
1	1432	716.925301771264	0.18671405259
1	1436	722.715836237581	0.094971420175
1	1440	723.204252231196	0.452784790572
1	1446	724.36978910764	0.918088215351
1	1448	724.412489188406	0.888305007166
1	1454	727.71405049241	3.21764306481
1	1460	730.504552396164	4.959496572109
1	1462	730.708864885396	1.330302070508
1	1466	731.292707072827	1.167635149048
1	1468	731.868719128903	0.614630923759
1	1472	734.007480343564	0.462621649649
1	1476	735.310155212565	0.005353252038
1	1480	735.716875298604	0.214353984432
1	1484	739.698842669217	1.350969683854
1	1488	741.953197871131	0.888263973109
1	1494	743.585520666027	0.676190923312
1	1496	745.007551143771	1.675461650556
1	1500	747.566037583995	1.191831459984
1	1504	755.724042772983	1.45619342719
1	1508	756.898081547565	1.073959391732
1	1512	760.779063343685	1.520876412674
1	1518	761.324806493776	0.417130145905
1	1520	761.508888525846	0.229265572593
1	1526	763.151588939964	0.751847691136
1	1530	763.479929988689	0.603099615633
1	1534	764.135003392081	0.683072717167
1	1540	766.146958477876	2.409105217951
1	1544	766.469924896446	1.388394763586
1	1548	767.826189371078	1.778364858487
1	1550	768.077976774499	1.84572977191
1	1552	768.800502213864	2.211289321234
1	1556	780.202064151059	0.710751830459
1	1560	792.460984980421	0.165315781574
1	1566	797.093864053658	0.109599190961
1	1570	797.964285370977	0.918491861464
1	1572	798.206061181447	0.639477653483
1	1576	799.475895571557	0.148578837874
1	1580	799.939845566468	0.066181358179
1	1584	804.182345122891	1.290099853594
1	1588	811.381450631357	2.154307952398
1	1592	815.40173340611	3.920109527103
1	1596	816.01220323174	0.173042847811
1	1600	821.216627970018	0.621281326819
1	1604	828.117863718166	2.893993566997
1	1608	829.354476526445	0.641324195906
1	1612	831.449215584637	0.91482943703
1	1622	846.576064244558	3.19256138133
1	1624	846.764680020703	3.145261816046
1	1626	847.757463454642	3.645195118368
1	1628	848.693560502229	2.703367111366
1	1632	850.089800035922	0.350305167642
1	1636	850.368595065878	0.129044625821
1	1642	854.501591267311	0.831136615588
1	1644	854.679167220645	0.936947217733
1	1648	856.543401838153	0.145546952686
1	1654	860.512495610336	3.124613778731
1	1656	860.751271577926	2.412712026471
1	1660	862.772349551603	0.989630559193
1	1664	865.147492119055	0.267564007393
1	1668	866.347783188733	0.391676484918
1	1672	868.573302969065	0.287954959257
1	1678	875.7700258243	3.406905664408
1	1680	875.795620011696	3.217766736168
1	1686	880.452253355411	1.506775864316
1	1690	881.321803061711	1.057829062168
1	1692	881.377121554865	0.377259989412
1	1696	887.791398748253	0.837368492725
1	1700	890.200347980337	0.775559939543
1	1704	893.202790849444	0.172891971046
1	1708	893.676661005365	0.145526265144
1	1712	895.902491368028	0.963229595107
1	1716	899.168365315023	0.160703609919
1	1720	899.940428529418	0.012661067305
1	1724	901.567587684851	0.075015360111
1	1730	905.903064125109	1.07814707279
1	1732	907.551649645571	1.999275089492
1	1736	910.47225931257	2.155077030192
1	1740	921.428378569685	0.2363332646
1	1744	922.013807386864	0.08860525352
1	1750	924.836722197376	1.293397954719
1	1752	925.420841444898	1.246781935749
1	1756	933.477487633956	0.591647494778
1	1762	941.684412111767	2.0973523054
1	1764	942.471110791911	1.558195059601
1	1768	944.62631265179	0.864806724594
1	1776	945.994082353917	1.317642241126
1	1782	948.252218370683	3.079165883908
1	1784	948.320713685964	2.688926970756
1	1786	948.994703914419	2.90298540893
1	1788	949.314390853893	1.358294410453
1	1794	954.41686591628	1.737699433529
1	1798	955.476932300735	1.936792017727
1	1800	955.778350669033	0.784486089788
1	1804	957.620613926967	0.253742406536
1	1808	959.059310295018	0.813976815192
1	1812	960.154672301999	0.845786916342
1	1820	962.826789656437	2.044973292182
1	1822	963.303353176831	2.456306961494