version 3
run General-13-20221028-09:56:52-16128
attr configname General
attr datetime 20221028-09:56:52
attr datetimef 20221028-095652
attr experiment General
attr inifile simu_1.ini
attr iterationvars ""
attr iterationvarsd ""
attr iterationvarsf ""
attr measurement ""
attr network Rete
attr processid 16128
attr repetition 13
attr replication #13
attr resultdir results
attr runnumber 13
attr seedset 13
config network Rete
config record-eventlog false
config repeat 30
config sim-time-limit 1000s
config simtime-resolution ps
config **.Servente.serviceTime exponential(1s)
config **.Arrivi.interArrivalTime exponential(2s)

vector 0 Rete.Servente queueLength:vector ETV
attr interpolationmode sample-hold
attr recordingmode vector
attr title "queue length"
vector 1 Rete.Pozzo lifeTime:vector ETV
attr interpolationmode none
attr recordingmode vector
attr title "lifetime of arrived jobs"
attr unit s
0	0	0	0
0	16	13.665629731621	1
0	18	16.508097168146	2
0	19	16.868044292533	1
0	22	17.716353364756	2
0	23	18.261006898377	1
0	25	19.195826599802	0
0	28	19.594666016042	1
0	29	20.689824259441	0
0	36	23.736817974114	1
0	37	24.034831261388	0
0	80	51.647309541936	1
0	82	54.213836787221	2
0	83	54.22743741106	1
0	86	54.705379586121	2
0	88	55.474915242501	3
0	90	57.020976924885	4
0	91	57.026067094706	3
0	93	57.661205518882	2
0	95	57.693629197162	1
0	97	58.672946347531	0
0	108	65.039947844651	1
0	110	65.148515079543	2
0	112	65.1660229467	3
0	113	66.428434087864	2
0	115	67.801130263633	1
0	118	68.265252161719	2
0	119	68.547348857777	1
0	121	68.766539746932	0
0	140	77.626359893185	1
0	141	79.307138149505	0
0	148	80.084682020171	1
0	149	80.11640987842	0
0	152	80.321182639261	1
0	153	81.362012902073	0
0	168	88.286467651101	1
0	169	89.012720721691	0
0	184	93.462969665296	1
0	185	93.753665685331	0
0	192	95.143821958477	1
0	194	95.800226051586	2
0	196	95.940893947226	3
0	198	96.176645645737	4
0	199	96.485773570325	3
0	201	97.269329839639	2
0	203	98.063978543701	1
0	206	98.493912192596	2
0	208	98.790879841256	3
0	209	99.046212502658	2
0	211	99.150188665792	1
0	214	100.164818154933	2
0	215	100.403247091705	1
0	217	100.634407686151	0
0	220	100.728374849361	1
0	221	100.799030782257	0
0	228	110.984442994541	1
0	229	111.732857720889	0
0	240	123.674373554756	1
0	241	124.29724342883	0
0	244	124.31893349468	1
0	245	124.372761703297	0
0	248	124.730410406081	1
0	250	125.927209731989	2
0	251	126.203523022749	1
0	253	126.755267518836	0
0	260	126.972501489746	1
0	261	127.178529233155	0
0	268	129.615915864793	1
0	269	129.61916277428	0
0	272	132.760427532488	1
0	274	132.785490753934	2
0	275	133.814773713396	1
0	277	135.192884577808	0
0	288	146.668713499834	1
0	290	146.957961546673	2
0	292	147.865957441726	3
0	294	148.265529481241	4
0	295	148.692334789355	3
0	297	148.722572347219	2
0	300	148.779415941225	3
0	302	149.797111668455	4
0	304	150.090306391062	5
0	306	150.455628967905	6
0	307	150.781676984507	5
0	309	150.822486146784	4
0	312	150.994999392717	5
0	313	151.72734063595	4
0	315	152.557276188175	3
0	317	153.00103105302	2
0	319	156.193623753676	1
0	321	156.221084458121	0
0	360	181.216953131697	1
0	362	182.363244154866	2
0	363	182.842117821573	1
0	365	183.087321090329	0
0	376	187.664465485848	1
0	378	188.615683468034	2
0	380	189.047764866849	3
0	381	189.067325589348	2
0	384	189.091036279715	3
0	385	189.152774610132	2
0	387	189.466642823228	1
0	389	190.887262117399	0
0	396	196.854934687359	1
0	397	197.58294126518	0
0	400	198.649180527474	1
0	401	198.77605604413	0
0	404	200.399181150196	1
0	405	202.075547548837	0
0	424	215.522370175532	1
0	425	215.679930421968	0
0	472	233.760439249773	1
0	474	235.010537097932	2
0	475	235.06778060589	1
0	477	235.263936740557	0
0	480	235.522941158419	1
0	481	236.210299102122	0
0	484	238.352387969422	1
0	485	238.64363178721	0
0	508	267.475966665152	1
0	509	267.514705265825	0
0	512	267.645192881181	1
0	513	267.703055313871	0
0	516	268.693530535914	1
0	517	269.5241346394	0
0	528	276.132671630979	1
0	529	276.280627701229	0
0	540	278.711366929501	1
0	541	279.415794944944	0
0	544	280.07602752434	1
0	546	282.011696224767	2
0	547	282.429101415907	1
0	549	282.684445772334	0
0	556	284.860058540567	1
0	557	286.189547882855	0
0	564	288.15191083554	1
0	565	288.220242619323	0
0	616	317.322845145268	1
0	617	317.856797715201	0
0	656	351.027553239386	1
0	657	352.767224629864	0
0	664	356.33228758672	1
0	665	357.200632004157	0
0	680	374.40887284478	1
0	681	374.476822857008	0
0	692	379.323658145539	1
0	694	380.22477036348	2
0	696	380.508814376316	3
0	697	382.103558294686	2
0	699	383.283281698457	1
0	702	383.64269566071	2
0	704	384.45649268745	3
0	705	385.144147178547	2
0	707	385.342846627486	1
0	710	387.087179025122	2
0	712	387.390215207434	3
0	714	387.790675446189	4
0	715	387.911682541538	3
0	718	390.003444699001	4
0	719	390.514152467036	3
0	721	390.667856321532	2
0	724	390.727837222185	3
0	726	391.489525489565	4
0	727	391.618879650371	3
0	729	393.283489679826	2
0	731	393.510270952205	1
0	733	394.79599657927	0
0	740	397.10445674515	1
0	741	397.472683685795	0
0	748	399.656832972455	1
0	750	400.159273075735	2
0	752	400.516049677202	3
0	754	400.947304191296	4
0	756	402.174916592902	5
0	757	402.542982869368	4
0	759	402.869909781386	3
0	761	403.196135747819	2
0	763	403.425045988354	1
0	765	403.508802978671	0
0	772	405.614782919158	1
0	773	406.156671786626	0
0	780	411.779785552208	1
0	781	412.593687246081	0
0	784	414.050268360129	1
0	785	414.387741636025	0
0	788	414.620607793491	1
0	789	415.532796543033	0
0	800	420.778733545357	1
0	801	420.99257627234	0
0	808	421.57328298741	1
0	809	421.84442438753	0
0	824	432.273990668722	1
0	825	432.292191961414	0
0	852	459.291484496945	1
0	854	459.738930056056	2
0	856	459.911916006601	3
0	857	460.74052428425	2
0	859	461.765040986433	1
0	861	462.544588876848	0
0	876	466.004832137603	1
0	878	466.049234627797	2
0	879	466.053952257639	1
0	881	468.078960394363	0
0	884	468.67099497057	1
0	886	469.355730192255	2
0	887	471.26586977792	1
0	889	471.875206914074	0
0	896	474.658686590386	1
0	897	474.823926657087	0
0	900	475.372129356032	1
0	901	476.269982811731	0
0	936	494.578460690933	1
0	938	494.587947782825	2
0	940	495.368874207547	3
0	941	495.944537802876	2
0	943	496.850729856013	1
0	946	497.639061231975	2
0	947	497.919614121178	1
0	950	498.039970489243	2
0	951	498.357556128098	1
0	954	498.816417910232	2
0	955	500.359087047757	1
0	958	501.193363157304	2
0	959	501.544774959888	1
0	961	502.493620889782	0
0	964	502.58591837471	1
0	966	503.355804944764	2
0	967	504.538785966203	1
0	969	505.875443734784	0
0	984	510.018843262844	1
0	986	511.305157308864	2
0	987	511.89245870025	1
0	989	515.005618503829	0
0	996	515.142464505784	1
0	997	515.27083888264	0
0	1000	515.388863393885	1
0	1001	515.472162166752	0
0	1008	517.005050184901	1
0	1010	517.287432131414	2
0	1011	517.321916211202	1
0	1014	517.457802808674	2
0	1016	518.369747167218	3
0	1017	518.502413630585	2
0	1020	519.946572325778	3
0	1021	520.845546962298	2
0	1023	520.976477828627	1
0	1025	521.126783527226	0
0	1044	528.09644053118	1
0	1046	529.787042147813	2
0	1048	530.275651227537	3
0	1050	530.387388688045	4
0	1051	531.333587742958	3
0	1053	532.122517524848	2
0	1055	532.166549488468	1
0	1057	532.332317970287	0
0	1080	542.688153926999	1
0	1081	544.067371360999	0
0	1088	547.951856955548	1
0	1089	548.185565832277	0
0	1092	549.436215829812	1
0	1094	551.077947459963	2
0	1095	551.289412254645	1
0	1097	554.283396426933	0
0	1104	556.152413523948	1
0	1105	556.281654913456	0
0	1116	564.702085276104	1
0	1118	565.793451087907	2
0	1119	566.43008649357	1
0	1121	566.798152539278	0
0	1128	567.709165835947	1
0	1130	567.795804873624	2
0	1131	568.195324702437	1
0	1133	568.816843778485	0
0	1192	597.067613996783	1
0	1194	597.902827003827	2
0	1196	598.239850793619	3
0	1197	598.531137128448	2
0	1199	600.540886379632	1
0	1201	600.596825736397	0
0	1204	600.760812386509	1
0	1206	601.115208445673	2
0	1207	601.214908545653	1
0	1210	602.765118228628	2
0	1212	603.513767123156	3
0	1214	604.455234897786	4
0	1216	605.012229712664	5
0	1218	605.438980630243	6
0	1220	606.086800245051	7
0	1222	608.053596969144	8
0	1223	608.373482083276	7
0	1226	608.945931957724	8
0	1227	609.706956340536	7
0	1229	610.002583347794	6
0	1231	610.033812711125	5
0	1233	610.089315319804	4
0	1235	610.576676098478	3
0	1238	610.633743447038	4
0	1240	611.468435717889	5
0	1241	613.239928267135	4
0	1243	614.233747383999	3
0	1245	617.138900931868	2
0	1247	619.168400762725	1
0	1250	620.754485020576	2
0	1251	622.386507127202	1
0	1253	622.583735616261	0
0	1256	623.716921374125	1
0	1258	625.983660884065	2
0	1260	627.059138177179	3
0	1261	627.336359541032	2
0	1263	627.577979928813	1
0	1265	627.929409287815	0
0	1272	631.683173572388	1
0	1273	632.637509245115	0
0	1276	633.313591140005	1
0	1278	634.966500194795	2
0	1279	635.089731768177	1
0	1281	635.117086575316	0
0	1284	635.439718635747	1
0	1285	635.750459517811	0
0	1296	645.30080326667	1
0	1297	645.719916057974	0
0	1304	647.896380876087	1
0	1305	648.186373310547	0
0	1316	650.366236202272	1
0	1317	650.979588163789	0
0	1324	658.248821393589	1
0	1326	658.319511881976	2
0	1327	658.327071223759	1
0	1330	658.368423029866	2
0	1332	658.590352046779	3
0	1333	658.73480895755	2
0	1335	658.872870812065	1
0	1337	659.203568020705	0
0	1348	664.260637605672	1
0	1350	665.969572742156	2
0	1351	666.132399614517	1
0	1354	666.436309114	2
0	1355	666.92133109217	1
0	1358	667.394812005054	2
0	1360	667.438071849186	3
0	1362	667.671135477768	4
0	1364	667.794554841709	5
0	1365	668.919977000128	4
0	1367	670.738743880252	3
0	1369	670.892024237529	2
0	1371	672.103254605602	1
0	1373	672.222535520949	0
0	1380	674.815423898008	1
0	1381	675.341317251125	0
0	1392	688.784732928076	1
0	1393	689.992016457951	0
0	1404	691.800564827594	1
0	1406	692.191282322531	2
0	1407	693.342049414498	1
0	1409	693.891554302782	0
0	1424	702.735066036598	1
0	1426	703.506112053201	2
0	1427	704.866445920235	1
0	1429	705.240644439363	0
0	1432	705.430833317166	1
0	1433	706.321840719743	0
0	1436	706.685671997888	1
0	1437	706.965150639943	0
0	1444	710.096647736323	1
0	1445	710.326797112837	0
0	1456	712.411861210876	1
0	1457	712.990230565844	0
0	1460	713.868213997999	1
0	1461	715.192112581766	0
0	1476	719.275065009574	1
0	1477	719.289671845506	0
0	1480	719.571809638188	1
0	1482	720.20433274229	2
0	1483	720.566517890167	1
0	1485	720.588686768289	0
0	1488	720.689930988292	1
0	1489	720.86701984023	0
0	1492	721.03676124026	1
0	1494	721.535955943956	2
0	1495	721.814436864918	1
0	1498	724.645446991764	2
0	1499	725.430960831619	1
0	1501	725.573829697501	0
0	1512	730.782479738926	1
0	1514	732.023889633825	2
0	1515	733.16533104266	1
0	1518	733.974019821987	2
0	1519	736.13317391326	1
0	1521	736.289241703486	0
0	1532	743.578168502057	1
0	1533	744.313422615382	0
0	1540	755.063696003159	1
0	1541	756.466606650455	0
0	1544	758.018699024885	1
0	1546	759.270678485397	2
0	1548	759.759313074575	3
0	1550	761.524427475965	4
0	1551	761.604801293548	3
0	1554	761.958358899071	4
0	1556	762.056697838274	5
0	1557	762.310997962915	4
0	1559	762.98385724047	3
0	1562	766.124946789257	4
0	1563	766.577947561569	3
0	1565	767.437588038698	2
0	1567	768.509187425234	1
0	1570	769.346115265739	2
0	1572	769.629225543699	3
0	1573	770.428812857099	2
0	1575	773.320974348904	1
0	1577	773.331641357734	0
0	1604	790.732659983714	1
0	1605	791.968956739992	0
0	1608	794.796267912507	1
0	1610	794.841649052571	2
0	1611	794.968148543548	1
0	1613	797.260776007042	0
0	1616	798.116589084573	1
0	1618	798.939237519491	2
0	1619	799.340617190167	1
0	1622	799.784829642797	2
0	1623	799.827785000205	1
0	1625	800.255932150677	0
0	1628	800.552989746994	1
0	1630	801.357552826529	2
0	1631	802.390076912058	1
0	1633	802.817762041279	0
0	1648	809.043278676105	1
0	1649	810.136387087829	0
0	1656	812.16937597923	1
0	1657	812.82229623782	0
0	1688	837.315300399203	1
0	1690	838.416657314769	2
0	1691	839.68197652035	1
0	1693	840.205456301013	0
0	1712	850.452627019811	1
0	1713	850.666542530957	0
0	1716	855.327445679588	1
0	1717	855.570224640967	0
0	1732	866.489530247087	1
0	1733	866.751975145869	0
0	1736	867.035656769534	1
0	1738	869.429595673083	2
0	1740	871.090094937494	3
0	1741	871.889276561679	2
0	1744	871.916687833057	3
0	1745	873.875724343582	2
0	1747	875.893817802104	1
0	1750	876.83872393216	2
0	1751	877.411420731316	1
0	1753	877.455937539222	0
0	1764	887.460721091429	1
0	1765	887.731512703752	0
0	1784	901.304012725681	1
0	1785	901.684983252275	0
0	1792	904.892071542836	1
0	1793	905.832775681056	0
0	1816	919.599240039212	1
0	1818	919.605174620141	2
0	1819	919.906073871785	1
0	1822	920.093261200709	2
0	1824	920.278845875859	3
0	1825	920.343031923832	2
0	1828	920.955971569374	3
0	1829	921.007955378762	2
0	1831	921.147906312459	1
0	1833	921.241790719065	0
0	1864	938.630814802877	1
0	1865	938.959134507769	0
0	1868	939.209249290987	1
0	1869	940.7420280797	0
0	1888	955.993950772392	1
0	1889	956.04823323981	0
0	1892	959.133585641631	1
0	1894	959.24401919514	2
0	1895	959.945635700427	1
0	1897	960.039460484301	0
0	1904	961.457601958545	1
0	1905	962.874236086271	0
0	1912	965.22247181517	1
0	1913	965.55221048761	0
0	1936	972.861485449062	1
0	1938	973.513460280662	2
0	1939	973.716598375923	1
0	1942	974.647524303328	2
0	1943	974.988462719118	1
0	1945	976.078313340143	0
0	1952	979.135807828967	1
0	1953	984.212490397829	0
0	1964	989.61293413403	1
0	1965	990.355855518769	0
0	1972	991.153567551599	1
0	1973	991.242610981648	0
0	1976	991.563204021678	1
0	1977	991.866643711404	0
0	1984	996.809657463728	1
0	1986	996.96566418511	2
1	4	3.278683426388	0.271206825679
1	8	6.615960820152	1.738855079561
1	12	12.175307611898	3.37404539673
1	20	16.868044292533	3.59725281557
1	24	18.261006898377	4.595377166756
1	26	19.195826599802	2.687729431656
1	30	20.689824259441	2.973470894685
1	32	21.715967098502	2.12130108246
1	38	24.034831261388	1.28019974301
1	40	24.070496285618	0.333678311504
1	44	24.923363572843	0.35446234896
1	48	26.798094492531	0.060294193339
1	52	33.402459966165	1.945336921123
1	56	34.469848367553	0.466575953218
1	60	36.418005863014	1.138959249605
1	64	36.949488624608	0.296090585933
1	68	38.262609047661	0.427068612421
1	72	39.357493084546	0.009457348134
1	76	49.7871563333	0.443687023509
1	84	54.22743741106	2.977778047906
1	92	57.026067094706	5.37875755277
1	94	57.661205518882	3.447368731661
1	96	57.693629197162	2.988249611041
1	98	58.672946347531	3.19803110503
1	100	58.740245515741	1.719268590856
1	104	63.011295281622	0.993790220416
1	114	66.428434087864	2.069993912238
1	116	67.801130263633	2.761182418982
1	120	68.547348857777	3.398833778234
1	122	68.766539746932	3.600516800232
1	124	68.845277208584	0.580025046865
1	128	72.685285704849	1.068438154719
1	132	74.137436634652	0.711845308373
1	136	75.645802748828	0.653702247944
1	142	79.307138149505	3.113933645171
1	144	79.30715018762	1.680790294435
1	150	80.11640987842	0.283661772364
1	154	81.362012902073	1.277330881902
1	156	81.754436503295	1.433253864034
1	160	84.269225922121	0.324341012175
1	164	85.768576287089	1.18890507022
1	170	89.012720721691	2.50778734417
1	172	89.293064059919	1.006596408818
1	176	91.219521328452	0.612647621545
1	180	91.612529342382	0.291680303824
1	186	93.753665685331	0.476961036682
1	188	94.681368373213	1.218398707917
1	200	96.485773570325	1.480072257089
1	202	97.269329839639	2.125507881162
1	204	98.063978543701	2.263752492115
1	210	99.046212502658	3.105318555432
1	212	99.150188665792	2.973543020055
1	216	100.403247091705	1.909334899109
1	218	100.634407686151	1.843527844895
1	222	100.799030782257	0.634212627324
1	224	103.402646430095	2.674271580734
1	230	111.732857720889	1.139762490531
1	232	112.004218936754	1.019775942213
1	236	122.799757565354	0.841380988995
1	242	124.29724342883	0.813355274834
1	246	124.372761703297	0.698388148541
1	252	126.203523022749	1.884589528069
1	254	126.755267518836	2.024857112755
1	256	126.91177045323	0.984560721241
1	262	127.178529233155	0.211857548319
1	264	127.853129741499	0.880628251753
1	270	129.61916277428	1.244879438184
1	276	133.814773713396	4.198857848603
1	278	135.192884577808	2.43245704532
1	280	135.884116953271	3.098626199337
1	284	137.053883068218	0.112922367118
1	296	148.692334789355	2.444296226751
1	298	148.722572347219	2.053858847385
1	308	150.781676984507	3.823715437834
1	310	150.822486146784	2.956528705058
1	314	151.72734063595	3.461811154709
1	316	152.557276188175	3.77786024695
1	318	153.00103105302	3.203919384565
1	320	156.193623753676	6.103317362614
1	322	156.221084458121	5.765455490216
1	324	156.824828571101	5.829829178384
1	328	157.787707764829	0.138065164234
1	332	160.656270415566	1.429484474267
1	336	162.454812435054	0.225188234329
1	340	164.092106689008	0.193256958862
1	344	165.666294416822	0.574685289312
1	348	173.567333958217	0.415910678119
1	352	178.062905807251	3.418947187937
1	356	179.13597739153	0.154347795283
1	364	182.842117821573	1.861486026058
1	366	183.087321090329	1.870367958632
1	368	183.203074213827	0.839830058961
1	372	184.669366836148	0.092393330908
1	382	189.067325589348	3.395077349935
1	386	189.152774610132	1.488309124284
1	388	189.466642823228	0.850959355194
1	390	190.887262117399	1.83949725055
1	392	191.937457230703	2.846420950988
1	398	197.58294126518	0.791371540198
1	402	198.77605604413	1.921121356771
1	406	202.075547548837	3.426367021363
1	408	202.400892069559	2.001710919363
1	412	204.214535239605	0.266085571843
1	416	208.490120979443	1.868675425719
1	420	211.689276733689	0.253876596634
1	426	215.679930421968	1.167661139846
1	428	215.846569163616	0.324198988084
1	432	216.555922167338	0.227651369874
1	436	217.541616381431	0.069992180897
1	440	219.457632155776	1.384239260949
1	444	223.197116014095	0.198547771918
1	448	223.602148657839	0.13268684952
1	452	224.473840416982	0.254643604618
1	456	225.016904810898	0.327753727491
1	460	226.284947429405	0.034406916019
1	464	227.43234824761	0.293564922312
1	468	232.804150763107	1.105198051531
1	476	235.06778060589	1.42677925045
1	478	235.263936740557	1.503497490784
1	482	236.210299102122	1.19976200419
1	486	238.64363178721	3.120690628791
1	488	239.423668081264	1.071280111842
1	492	248.337693726483	0.468317202006
1	496	256.795472844733	0.013288524464
1	500	259.32050057125	1.767951300918
1	504	266.364095269472	1.695875967714
1	510	267.514705265825	0.083077436235
1	514	267.703055313871	0.227088648719
1	518	269.5241346394	1.878941758219
1	520	270.354615347522	1.661084811608
1	524	272.669085491042	0.430447925831
1	530	276.280627701229	0.156657278841
1	532	276.384344097963	0.251672466984
1	536	277.470904489111	0.821392955423
1	542	279.415794944944	1.238101585056
1	548	282.429101415907	3.717734486406
1	550	282.684445772334	2.608418247994
1	552	283.150052705048	1.138356480281
1	558	286.189547882855	1.420791832515
1	560	286.263273556489	1.403215015922
1	566	288.220242619323	0.972452092124
1	568	289.49576166216	1.34385082662
1	572	289.967704181628	0.042707744389
1	576	293.031542190995	0.502926601057
1	580	296.773788083077	0.175948493238
1	584	300.823840550012	0.323078651773
1	588	301.535841363814	0.256833903313
1	592	302.680556303527	0.363388760165
1	596	303.621613988924	0.146452661673
1	600	308.962599202749	1.184987694603
1	604	312.282182141151	0.054314909203
1	608	314.103015019769	0.870930965757
1	612	314.890729717753	0.198119447584
1	618	317.856797715201	0.706620237147
1	620	318.187413506087	0.864568360819
1	624	321.85464926722	0.462157488216
1	628	324.334509325668	0.702246276561
1	632	326.193639471307	0.130485992251
1	636	327.257756192772	0.140025806178
1	640	329.535045665481	1.860558246383
1	644	333.380103677229	0.497907002587
1	648	344.430671219138	0.185802585885
1	652	349.931875070919	1.615350716938
1	658	352.767224629864	2.409375778047
1	660	354.536699139326	3.50914589994
1	666	357.200632004157	1.251941529979
1	668	357.305290154119	0.973002567399
1	672	365.694410205211	2.445315672793
1	676	366.924868144415	0.862701028625
1	682	374.476822857008	2.305343386275
1	684	375.305950533834	0.897077689054
1	688	376.881685073329	0.009894225695
1	698	382.103558294686	5.156707443181
1	700	383.283281698457	3.959623552918
1	706	385.144147178547	4.919376815067
1	708	385.342846627486	4.83403225117
1	716	387.911682541538	4.268986880828
1	720	390.514152467036	6.057659779586
1	722	390.667856321532	3.58067729641
1	728	391.618879650371	4.228664442937
1	730	393.283489679826	5.492814233637
1	732	393.510270952205	3.506826253204
1	734	394.79599657927	4.068159357085
1	736	394.923387034206	3.433861544641
1	742	397.472683685795	0.497894030764
1	744	398.658617604838	1.554160859688
1	758	402.542982869368	2.899822942985
1	760	402.869909781386	3.213076808931
1	762	403.196135747819	3.036862672084
1	764	403.425045988354	2.908996311152
1	766	403.508802978671	2.561498787375
1	768	403.87745800942	1.702541416518
1	774	406.156671786626	1.587723235405
1	776	406.254114876715	0.639331957557
1	782	412.593687246081	2.032704363255
1	786	414.387741636025	2.607956083817
1	790	415.532796543033	1.482528182904
1	792	415.883509657364	1.262901863873
1	796	417.061016845854	0.181665525542
1	802	420.99257627234	2.512581633819
1	804	421.066680542744	0.287946997387
1	810	421.84442438753	0.643344325944
1	812	422.291070022098	0.717787034688
1	816	423.174736348353	0.174033296976
1	820	427.097567916913	3.43939046226
1	826	432.292191961414	0.247118001117
1	828	433.536224550061	1.262233881339
1	832	443.622494094657	2.112588871557
1	836	450.400610359909	1.1053462958
1	840	450.854329862865	0.15492495
1	844	453.166576735048	1.574495465373
1	848	456.971510515019	0.242724887471
1	858	460.74052428425	3.122430673925
1	860	461.765040986433	2.473556489488
1	862	462.544588876848	2.805658820792
1	864	463.495073226135	3.583157219534
1	868	464.570834571772	0.654064587569
1	872	464.835184768619	0.180554839469
1	880	466.053952257639	0.29033246248
1	882	468.078960394363	2.07412825676
1	888	471.26586977792	5.216635150123
1	890	471.875206914074	3.204211943504
1	892	473.212329865831	3.856599673576
1	898	474.823926657087	0.266157872933
1	902	476.269982811731	1.611296221345
1	904	476.622825423197	1.250696067165
1	908	478.972307373081	0.330391877558
1	912	482.017055824735	1.458441523392
1	916	484.599705443117	1.157686086406
1	920	485.071943163705	0.318958050406
1	924	486.054664638355	0.17856830133
1	928	489.882059059427	0.108606181945
1	932	491.14099741691	0.672132662975
1	942	495.944537802876	1.790268594919
1	944	496.850729856013	2.27226916508
1	948	497.919614121178	3.331666338353
1	952	498.357556128098	2.988681920551
1	956	500.359087047757	2.720025815782
1	960	501.544774959888	3.504804470645
1	962	502.493620889782	3.67720297955
1	968	504.538785966203	3.345422808899
1	970	505.875443734784	3.289525360074
1	972	506.228914871691	2.873109926927
1	976	506.9077205242	0.029525720032
1	980	509.399889503056	1.03052463813
1	988	511.89245870025	2.034001174211
1	990	515.005618503829	4.986775240985
1	992	515.020515655163	3.715358346299
1	998	515.27083888264	0.164262706621
1	1002	515.472162166752	0.329697660968
1	1004	515.803338868443	0.414475474558
1	1012	517.321916211202	0.381897839824
1	1018	518.502413630585	1.497363445684
1	1022	520.845546962298	3.558114830884
1	1024	520.976477828627	3.518675019953
1	1026	521.126783527226	2.757036360008
1	1028	522.651773580674	2.705201254896
1	1032	522.988653252825	0.058532971282
1	1036	525.851449288626	0.065340311871
1	1040	526.576677487878	0.560279883302
1	1052	531.333587742958	3.397986068669
1	1054	532.122517524848	4.026076993668
1	1056	532.166549488468	2.379507340655
1	1058	532.332317970287	2.05666674275
1	1060	534.52310226742	4.135713579375
1	1064	537.13636751075	0.833147877304
1	1068	538.901009165043	1.727331142806
1	1072	540.220273073495	0.657422743875
1	1076	541.643132290229	0.289566619367
1	1082	544.067371360999	1.858567218981
1	1084	544.48433642312	1.796182496121
1	1090	548.185565832277	1.310656972843
1	1096	551.289412254645	3.337555299097
1	1098	554.283396426933	4.847180597121
1	1100	554.995938923795	3.917991463832
1	1106	556.281654913456	0.274975091545
1	1108	557.848568725265	1.696155201317
1	1112	560.987312274699	0.046601838731
1	1120	566.43008649357	2.302272742661
1	1122	566.798152539278	2.096067263174
1	1124	566.814443560208	1.020992472301
1	1132	568.195324702437	0.733780440038
1	1134	568.816843778485	1.107677942538
1	1136	569.056246249145	1.260441375521
1	1140	570.119912074845	0.962641242607
1	1144	572.042484080057	0.001574395975
1	1148	572.716143986886	0.266495328818
1	1152	576.165685454753	0.748578342548
1	1156	579.077982565098	0.22207277985
1	1160	583.407218187798	0.279320497572
1	1164	584.077624372521	0.573416249522
1	1168	585.470867628785	0.057250167786
1	1172	585.759196524795	0.233444399464
1	1176	589.087342807065	0.076493568558
1	1180	592.49122637502	1.601597502757
1	1184	595.036325676038	0.698143346104
1	1188	596.005552040126	0.303192603633
1	1198	598.531137128448	1.593460035055
1	1200	600.540886379632	3.473272382849
1	1202	600.596825736397	2.69399873257
1	1208	601.214908545653	2.975057752034
1	1224	608.373482083276	7.612669696767
1	1228	609.706956340536	8.591747894863
1	1230	610.002583347794	7.237465119166
1	1232	610.033812711125	6.520045587969
1	1234	610.089315319804	5.634080422018
1	1236	610.576676098478	5.564446385814
1	1242	613.239928267135	7.800947636892
1	1244	614.233747383999	8.146947138948
1	1246	617.138900931868	9.085303962724
1	1248	619.168400762725	10.222468805001
1	1252	622.386507127202	11.752763680164
1	1254	622.583735616261	11.115299898372
1	1262	627.336359541032	6.581874520456
1	1264	627.577979928813	3.861058554688
1	1266	627.929409287815	1.94574840375
1	1268	630.479002825707	3.419864648528
1	1274	632.637509245115	1.684633444875
1	1280	635.089731768177	3.406558195789
1	1282	635.117086575316	1.803495435311
1	1286	635.750459517811	0.783959323016
1	1288	636.141307283795	0.701588648048
1	1292	639.709665428988	0.600159077278
1	1298	645.719916057974	1.299841655082
1	1300	647.010472837829	1.709669571159
1	1306	648.186373310547	1.014095896186
1	1308	648.600679673151	0.704298797064
1	1312	649.093886529526	0.253812871431
1	1318	650.979588163789	0.630568255278
1	1320	652.360782619498	1.994546417226
1	1328	658.327071223759	0.202635587418
1	1334	658.73480895755	0.485987563961
1	1336	658.872870812065	0.553358930089
1	1338	659.203568020705	0.835144990839
1	1340	659.828133168767	1.237781121988
1	1344	661.813256148215	0.440530787179
1	1352	666.132399614517	2.518996594165
1	1356	666.92133109217	2.660693486498
1	1366	668.919977000128	2.950404257972
1	1368	670.738743880252	4.302434766252
1	1370	670.892024237529	3.497212232475
1	1372	672.103254605602	4.665182756416
1	1374	672.222535520949	4.551400043181
1	1376	672.320444614723	4.525889773014
1	1382	675.341317251125	1.56706195582
1	1384	675.846135199062	1.030711301054
1	1388	685.57896781041	0.15699863124
1	1394	689.992016457951	4.194867949128
1	1396	690.118712402105	1.333979474029
1	1400	691.301561342362	0.151991315372
1	1408	693.342049414498	1.923596954961
1	1410	693.891554302782	2.090989475188
1	1412	693.96318921689	1.771906894359
1	1416	695.763166875523	0.971354351684
1	1420	701.282114054429	0.567378207532
1	1428	704.866445920235	2.183744360849
1	1430	705.240644439363	2.505578402765
1	1434	706.321840719743	2.815728666542
1	1438	706.965150639943	1.534317322777
1	1440	706.970285390109	0.284613392221
1	1446	710.326797112837	0.485057584997
1	1448	710.678264928196	0.581617191873
1	1452	711.496522751559	0.79749176606
1	1458	712.990230565844	0.654838824657
1	1462	715.192112581766	2.78025137089
1	1464	715.351746271911	1.483532273912
1	1468	715.553944362591	0.072593538609
1	1472	718.524751608089	0.652313280381
1	1478	719.289671845506	0.133265299412
1	1484	720.566517890167	1.291452880593
1	1486	720.588686768289	1.016877130101
1	1490	720.86701984023	0.66268709794
1	1496	721.814436864918	1.124505876626
1	1500	725.430960831619	4.394199591359
1	1502	725.573829697501	4.037873753545
1	1504	726.332892481595	1.687445489831
1	1508	727.513591921535	0.577984682184
1	1516	733.16533104266	4.526384486915
1	1520	736.13317391326	5.350694174334
1	1522	736.289241703486	4.265352069661
1	1524	736.45102228427	2.477002462283
1	1528	740.578117004602	1.585083915275
1	1534	744.313422615382	1.336000770898
1	1536	744.480687745362	0.902519243305
1	1542	756.466606650455	2.582347394259
1	1552	761.604801293548	6.541105290389
1	1558	762.310997962915	4.29229893803
1	1560	762.98385724047	3.713178755073
1	1564	766.577947561569	6.818634486994
1	1566	767.437588038698	5.913160562733
1	1568	768.509187425234	6.550828526163
1	1574	770.428812857099	8.372115018825
1	1576	773.320974348904	7.196027559647
1	1578	773.331641357734	3.985526091995
1	1580	773.747930008097	4.118704464398
1	1584	778.080260128843	0.650552768053
1	1588	782.396670366793	0.475207255982
1	1592	783.454692767681	0.719240557378
1	1596	785.590277983962	0.889333173197
1	1600	787.010954496693	0.971790668693
1	1606	791.968956739992	1.954667169872
1	1612	794.968148543548	4.235488559834
1	1614	797.260776007042	2.464508094535
1	1620	799.340617190167	4.498968137596
1	1624	799.827785000205	1.711195915632
1	1626	800.255932150677	1.316694631186
1	1632	802.390076912058	2.605247269261
1	1634	802.817762041279	2.264772294285
1	1636	803.294748999773	1.937196173244
1	1640	806.834999040746	0.275896087748
1	1644	808.789899126558	0.294239497292
1	1650	810.136387087829	1.13459123482
1	1652	811.282253201165	2.23897452506
1	1658	812.82229623782	1.453045506283
1	1660	813.451672977323	1.282296998093
1	1664	816.436650363557	1.11446874876
1	1668	820.343996882294	1.965543184692
1	1672	825.335841883786	0.211390092949
1	1676	826.66625093684	0.023551253973
1	1680	829.703341934885	1.81457504465
1	1684	832.816574422143	0.325332478227
1	1692	839.68197652035	3.666253376393
1	1694	840.205456301013	2.89015590181
1	1696	840.782713764024	2.366056449255
1	1700	841.295920646145	0.039832080365
1	1704	843.864253299265	1.514795977791
1	1708	847.164890606168	0.44153146582
1	1714	850.666542530957	0.843235190774
1	1718	855.570224640967	5.117597621156
1	1720	856.464892192827	1.137446513239
1	1724	859.908365907851	0.744228868302
1	1728	860.965647845018	0.395206820503
1	1734	866.751975145869	0.965126404672
1	1742	871.889276561679	5.399746314592
1	1746	873.875724343582	6.840067574048