version 3
run General-25-20221103-09:44:57-15908
attr configname General
attr datetime 20221103-09:44:57
attr datetimef 20221103-094457
attr experiment General
attr inifile simu_1.ini
attr iterationvars ""
attr iterationvarsd ""
attr iterationvarsf ""
attr measurement ""
attr network Rete
attr processid 15908
attr repetition 25
attr replication #25
attr resultdir results
attr runnumber 25
attr seedset 25
config network Rete
config record-eventlog true
config repeat 30
config sim-time-limit 1000s
config simtime-resolution ps
config **.Servente.serviceTime exponential(1s)
config **.Arrivi.interArrivalTime exponential(2s)

vector 0 Rete.Servente queueLength:vector ETV
attr interpolationmode sample-hold
attr recordingmode vector
attr title "queue length"
vector 1 Rete.Pozzo lifeTime:vector ETV
attr interpolationmode none
attr recordingmode vector
attr title "lifetime of arrived jobs"
attr unit s
0	0	0	0
0	16	8.206936024728	1
0	17	8.337521138804	0
0	24	9.133419629606	1
0	25	9.688512094076	0
0	32	11.458584854282	1
0	33	11.88582596059	0
0	36	12.092271335707	1
0	37	12.343237708751	0
0	48	20.85119242085	1
0	49	21.405830405163	0
0	68	28.339306092878	1
0	69	28.641546832475	0
0	72	29.069210802837	1
0	73	29.097875661752	0
0	80	34.415294458346	1
0	81	34.478799362213	0
0	84	34.941962223991	1
0	85	35.20550806942	0
0	92	41.978475001268	1
0	94	43.9765888772	2
0	96	45.420688564831	3
0	97	46.687996500785	2
0	99	47.506827719328	1
0	101	47.879818001648	0
0	124	57.882611439548	1
0	126	58.40709745063	2
0	127	59.864212751577	1
0	130	60.622074234607	2
0	131	60.801861965711	1
0	133	61.499756947085	0
0	136	61.839939073917	1
0	137	61.841971716355	0
0	156	73.085941098822	1
0	157	74.49191560174	0
0	176	88.818065660762	1
0	177	89.944353484813	0
0	180	91.656044911306	1
0	181	92.091653848831	0
0	188	94.0014687616	1
0	190	94.110551891302	2
0	192	94.296323451244	3
0	193	94.568598186898	2
0	195	95.595029533655	1
0	197	96.692229392745	0
0	212	107.197061389246	1
0	213	107.340008648147	0
0	232	115.078322708601	1
0	234	115.123278736888	2
0	235	115.298962283945	1
0	237	115.809360438053	0
0	240	116.196315268611	1
0	241	116.314438659299	0
0	244	117.699829328609	1
0	246	117.726644384499	2
0	247	118.058202365085	1
0	249	118.671615076303	0
0	256	120.318301745452	1
0	258	120.792047137064	2
0	260	121.954618733023	3
0	261	122.066206360247	2
0	263	122.53459408132	1
0	265	123.619529976168	0
0	268	125.672813016302	1
0	269	126.069175499993	0
0	288	141.319928738422	1
0	289	141.91768252745	0
0	296	144.547996967253	1
0	297	145.722552074843	0
0	300	146.709643920088	1
0	301	147.215110346748	0
0	308	148.111828703677	1
0	310	148.728498086822	2
0	311	149.083023819549	1
0	313	149.455143049668	0
0	316	149.545535172646	1
0	318	150.000403169609	2
0	319	150.094556041294	1
0	321	150.394602788434	0
0	324	150.4847103007	1
0	326	151.241243478953	2
0	327	152.82609002983	1
0	329	152.884489147413	0
0	348	162.427366280062	1
0	349	163.621856208607	0
0	356	165.668075182316	1
0	357	165.776713606265	0
0	412	188.6843980248	1
0	414	189.557704040649	2
0	415	189.860451315752	1
0	418	190.860222075498	2
0	420	191.282653720992	3
0	422	191.6722652956	4
0	423	191.707522829309	3
0	425	191.73099336253	2
0	428	192.255763917569	3
0	429	193.167904396846	2
0	432	195.380884523777	3
0	434	195.495270952924	4
0	435	196.350936460319	3
0	438	198.368910202692	4
0	440	199.140256129647	5
0	442	200.360021445642	6
0	443	201.987828902638	5
0	446	203.49643490877	6
0	447	203.499123715285	5
0	450	204.84124664456	6
0	452	205.544197009763	7
0	453	205.946404064172	6
0	455	206.867609874803	5
0	458	207.207945043829	6
0	460	207.709876287372	7
0	461	207.881617800195	6
0	463	208.369496440446	5
0	465	208.393251212996	4
0	467	208.399870738934	3
0	470	208.893873704577	4
0	471	209.091437260259	3
0	473	209.180388768086	2
0	475	209.399433647598	1
0	478	209.780751792035	2
0	479	210.801363904668	1
0	482	210.834735556226	2
0	483	211.019103865771	1
0	486	211.066818358513	2
0	488	211.246018258393	3
0	489	212.25725771849	2
0	492	212.637849611784	3
0	493	213.633980029693	2
0	495	213.836108266887	1
0	497	215.233907356213	0
0	504	220.720197889562	1
0	506	221.450899670429	2
0	507	222.373521569226	1
0	509	222.634854526152	0
0	520	231.668294993185	1
0	521	235.648445578417	0
0	528	236.73479367582	1
0	530	239.499163090368	2
0	532	239.766143568618	3
0	533	241.790039919814	2
0	535	242.222446680679	1
0	537	242.689525325324	0
0	548	246.739107966991	1
0	549	248.090635658161	0
0	556	252.251617175636	1
0	557	252.624515872483	0
0	564	254.047612150975	1
0	565	255.023603070016	0
0	568	256.220554001137	1
0	569	256.618639939924	0
0	584	262.667744148113	1
0	585	263.025301936129	0
0	616	279.136560104723	1
0	618	279.311005943013	2
0	619	279.762754681725	1
0	621	279.809273514071	0
0	636	289.454632776965	1
0	638	289.994081459936	2
0	639	290.598679108213	1
0	641	291.169255203817	0
0	644	292.87446307384	1
0	646	293.02657323066	2
0	647	293.166136402069	1
0	649	293.522200196428	0
0	656	295.919117583518	1
0	657	296.260251941401	0
0	700	318.311191736875	1
0	701	318.510470626541	0
0	716	322.187066743851	1
0	717	323.084752253663	0
0	724	325.285643763175	1
0	725	325.479821199038	0
0	736	332.076253364213	1
0	738	333.263990937114	2
0	739	333.31188474907	1
0	741	335.87483934784	0
0	764	354.751964261636	1
0	765	354.974560409263	0
0	808	374.671653973951	1
0	809	374.717678794896	0
0	820	380.711718794063	1
0	821	382.617036192953	0
0	828	383.500245999518	1
0	829	383.753445909878	0
0	832	384.013672651651	1
0	834	384.639742452519	2
0	835	384.899631940388	1
0	838	384.993242950652	2
0	839	385.378719062045	1
0	841	386.225335846707	0
0	848	391.037424973276	1
0	849	392.652015428539	0
0	864	396.919047656964	1
0	865	397.084797974936	0
0	896	424.718623814755	1
0	897	425.639290471726	0
0	908	429.420055790689	1
0	910	429.719301955392	2
0	911	430.339389079907	1
0	914	430.659996822475	2
0	916	430.81635992107	3
0	917	430.896453432555	2
0	919	432.002285230162	1
0	921	433.448353027532	0
0	944	444.260789348685	1
0	945	444.399636444741	0
0	964	455.477763907396	1
0	966	455.938833527022	2
0	968	458.257988589792	3
0	969	458.377205343938	2
0	971	458.996574690372	1
0	973	459.277491485887	0
0	992	473.631242238888	1
0	993	473.904668544119	0
0	1004	483.911519496741	1
0	1005	484.692541262844	0
0	1020	498.124318930035	1
0	1021	498.800490971065	0
0	1036	509.720192365113	1
0	1037	510.883348192531	0
0	1040	511.54905822547	1
0	1041	511.926459752124	0
0	1064	535.848120536391	1
0	1066	537.097965971607	2
0	1068	538.536367611735	3
0	1070	538.778647781895	4
0	1071	540.317918943695	3
0	1073	540.38551675256	2
0	1076	540.859038376992	3
0	1077	541.24403701877	2
0	1080	542.541114891491	3
0	1082	543.304397925228	4
0	1083	544.090564422793	3
0	1085	544.373196686908	2
0	1087	545.03514249566	1
0	1090	545.052313836727	2
0	1091	545.692398192027	1
0	1094	546.100905958646	2
0	1095	546.300459741614	1
0	1098	546.3937219154	2
0	1100	546.738971893372	3
0	1102	546.801584584094	4
0	1103	547.544629342519	3
0	1105	548.018828732411	2
0	1107	548.214148692769	1
0	1109	549.448724493149	0
0	1120	551.712796276282	1
0	1121	553.177912227247	0
0	1124	553.366409855078	1
0	1126	553.459566039882	2
0	1128	553.502891514816	3
0	1129	553.802425453778	2
0	1131	554.122675569915	1
0	1133	554.705106204309	0
0	1140	562.884239370913	1
0	1141	562.904752208303	0
0	1160	573.935276702222	1
0	1161	575.055877680967	0
0	1164	575.057514875227	1
0	1165	575.651009724974	0
0	1168	576.141990333181	1
0	1169	577.105401202456	0
0	1172	577.386553994239	1
0	1173	578.035561048416	0
0	1184	584.447776846513	1
0	1185	585.643144344033	0
0	1188	585.723580447954	1
0	1189	587.06303154491	0
0	1196	587.44631068	1
0	1197	587.676517447995	0
0	1216	605.751605773736	1
0	1218	606.081256800864	2
0	1220	606.431098231019	3
0	1221	606.491849597832	2
0	1223	608.139132590893	1
0	1225	608.60992390093	0
0	1236	614.497879481115	1
0	1237	614.851496101444	0
0	1244	616.794499747083	1
0	1246	617.851566574177	2
0	1248	619.41703986798	3
0	1249	619.523005998811	2
0	1251	620.856686088911	1
0	1254	621.094407167822	2
0	1255	621.418205214562	1
0	1257	622.858983637942	0
0	1260	623.808952592832	1
0	1262	624.514416436583	2
0	1264	625.436063003533	3
0	1265	626.593695600674	2
0	1267	629.334587782352	1
0	1269	629.562842816038	0
0	1276	633.789382277596	1
0	1278	634.072114539734	2
0	1279	634.531945216231	1
0	1281	636.96807647646	0
0	1296	645.000112682794	1
0	1298	646.063954294778	2
0	1299	646.286567349319	1
0	1301	646.381966313252	0
0	1304	647.694614896065	1
0	1305	647.873584736245	0
0	1312	650.662846503505	1
0	1313	650.669991434505	0
0	1320	652.821603883199	1
0	1322	652.828249761561	2
0	1323	654.748988207567	1
0	1325	654.946861083245	0
0	1332	657.295615165086	1
0	1333	660.181692822649	0
0	1352	667.48334987898	1
0	1353	668.12585214377	0
0	1368	675.001221191354	1
0	1369	675.410491639903	0
0	1380	687.399615947135	1
0	1382	687.506550128862	2
0	1384	687.70238830274	3
0	1386	688.833862666319	4
0	1387	691.777805463884	3
0	1390	692.344327974104	4
0	1392	693.25538551356	5
0	1393	693.414791617607	4
0	1396	693.561084598922	5
0	1398	693.820381775226	6
0	1400	695.735923898627	7
0	1402	695.748293162296	8
0	1403	695.996480101587	7
0	1405	696.295288577534	6
0	1407	696.659638548456	5
0	1410	696.797477585856	6
0	1411	697.010772768153	5
0	1414	698.024170806926	6
0	1416	699.617291976785	7
0	1418	699.96820962836	8
0	1419	700.384130428411	7
0	1422	702.129599358418	8
0	1423	702.507625681146	7
0	1425	704.486146256753	6
0	1427	705.300488919343	5
0	1429	705.35520004178	4
0	1432	705.862898525748	5
0	1434	706.03441949558	6
0	1436	707.6145251793	7
0	1437	707.615446776375	6
0	1440	708.697748244324	7
0	1441	709.325582008926	6
0	1444	709.68791290829	7
0	1445	710.09817806794	6
0	1448	710.357679897565	7
0	1449	710.813141093848	6
0	1452	711.451559798437	7
0	1453	712.453836071046	6
0	1455	712.940806518012	5
0	1457	714.600655032299	4
0	1459	714.779276424751	3
0	1462	714.964190680224	4
0	1463	714.973253265122	3
0	1466	716.134541031367	4
0	1467	716.288916135704	3
0	1469	717.56190686015	2
0	1471	717.660471979765	1
0	1474	717.850624829931	2
0	1476	720.091794805344	3
0	1477	720.271518958329	2
0	1479	720.433602973036	1
0	1481	720.732858531704	0
0	1488	723.323506090134	1
0	1489	723.760964990598	0
0	1504	733.469253302185	1
0	1505	733.511919484034	0
0	1508	733.796145581882	1
0	1509	733.814624625597	0
0	1520	742.79836098898	1
0	1522	742.995127172231	2
0	1523	743.008713432909	1
0	1525	743.527455768164	0
0	1528	744.388403335359	1
0	1529	745.574716793746	0
0	1532	745.837826976976	1
0	1533	746.557009144615	0
0	1536	746.755022655264	1
0	1537	747.350072841087	0
0	1540	747.355078759759	1
0	1541	747.693506502278	0
0	1548	749.649952205484	1
0	1549	750.328672002409	0
0	1552	752.992501818518	1
0	1553	753.004478779363	0
0	1576	763.553414565115	1
0	1577	763.955124470905	0
0	1580	764.011212207599	1
0	1582	764.800079983486	2
0	1583	766.963273160763	1
0	1585	767.679852882599	0
0	1588	767.977892447956	1
0	1590	769.163305353231	2
0	1591	769.299951588176	1
0	1594	769.698908193713	2
0	1596	769.838154994826	3
0	1597	770.105897968308	2
0	1599	770.137900282656	1
0	1602	770.582884649529	2
0	1603	771.119923620215	1
0	1606	772.305731541858	2
0	1608	772.654559535135	3
0	1609	774.627764032563	2
0	1612	775.140285961967	3
0	1614	775.571533356278	4
0	1616	775.850223489233	5
0	1618	777.081616671074	6
0	1619	778.097079319251	5
0	1622	778.512380386738	6
0	1623	780.183382721718	5
0	1625	781.649110741113	4
0	1628	783.208972142225	5
0	1629	783.981884516286	4
0	1631	785.431403561362	3
0	1633	786.095548598904	2
0	1635	787.228214546582	1
0	1638	788.042078105411	2
0	1640	788.266789947692	3
0	1641	789.674752243013	2
0	1644	789.977883203397	3
0	1645	790.176680411659	2
0	1647	790.27841690483	1
0	1650	790.392671449741	2
0	1651	791.72609234534	1
0	1654	792.304961025494	2
0	1655	793.76286912987	1
0	1657	794.410820195995	0
0	1664	797.188909480722	1
0	1665	797.468224428099	0
0	1676	802.376679725049	1
0	1678	802.452836562459	2
0	1680	802.930889758478	3
0	1681	803.725984321587	2
0	1683	804.162753019805	1
0	1686	804.483350031999	2
0	1687	804.96547508711	1
0	1689	805.553093648727	0
0	1712	815.341924677537	1
0	1713	815.972833230233	0
0	1716	817.436732608628	1
0	1717	818.722400732276	0
0	1724	821.119590084596	1
0	1725	821.739972973456	0
0	1728	822.698132086107	1
0	1730	823.004767757706	2
0	1731	825.274890457887	1
0	1733	826.429888592154	0
0	1740	831.773944572552	1
0	1741	832.50566262875	0
0	1748	836.240888343402	1
0	1749	836.99388631537	0
0	1768	844.731826351411	1
0	1769	845.925034988797	0
0	1788	861.930631899883	1
0	1790	865.073964218124	2
0	1792	866.102403221788	3
0	1793	866.333712423125	2
0	1795	867.085672444007	1
0	1798	868.210184442748	2
0	1799	869.532173707907	1
0	1801	870.345200210889	0
0	1812	875.49430704384	1
0	1814	876.610376223776	2
0	1815	877.286727713087	1
0	1817	877.629763639654	0
0	1820	877.710789428711	1
0	1821	877.972174485728	0
0	1824	878.18229451406	1
0	1825	878.670140323096	0
0	1836	881.146357691582	1
0	1838	881.455979282663	2
0	1840	882.203538642941	3
0	1841	883.040047761962	2
0	1843	884.840885381768	1
0	1846	884.878238654833	2
0	1847	885.628095519024	1
0	1849	886.252333791035	0
0	1852	886.390985481225	1
0	1854	886.541718609415	2
0	1856	886.675991457106	3
0	1857	886.828147434446	2
0	1859	888.248716175254	1
0	1861	888.343957526263	0
0	1876	899.63818641773	1
0	1877	899.969170055278	0
0	1880	900.473077135338	1
0	1881	901.052716279883	0
0	1904	916.578272548982	1
0	1906	917.803082493188	2
0	1908	918.938176404581	3
0	1909	919.542558169683	2
0	1911	919.687380011509	1
0	1913	920.89426962934	0
0	1924	931.522766369307	1
0	1925	931.708639970763	0
0	1932	939.900540987048	1
0	1933	940.88917584874	0
0	1944	943.891968629773	1
0	1946	944.777007645311	2
0	1947	945.492143143441	1
0	1949	946.888638563998	0
0	1952	949.447289409569	1
0	1954	951.759453909793	2
0	1956	952.637594903659	3
0	1957	952.679960857627	2
0	1960	952.744371334456	3
0	1961	954.184379808109	2
0	1964	954.867296211316	3
0	1965	955.401818343642	2
0	1967	955.437931058372	1
0	1969	955.860698232143	0
0	1984	961.238322448284	1
0	1985	961.259350806803	0
0	1996	967.132992676702	1
0	1998	967.996169880522	2
0	2000	968.063957782563	3
0	2001	968.406973351863	2
0	2004	968.560803278625	3
0	2005	968.732452546749	2
0	2007	970.902870654354	1
0	2009	972.011588099069	0
0	2024	977.294905454314	1
0	2025	978.290775096478	0
0	2032	979.768078628368	1
0	2033	980.311473108914	0
0	2036	980.460071889168	1
0	2037	982.095853634889	0
0	2044	983.967486995394	1
0	2045	984.216715224383	0
0	2068	995.935838487769	1
0	2069	996.574208603594	0
0	2072	996.702943762562	1
0	2074	996.96347807688	2
0	2076	998.649458144593	3
0	2077	999.123985398219	2
0	2079	999.399146557688	1
0	2081	999.432146375054	0
1	4	4.955288879771	0.872936581564
1	8	6.791134349803	0.326892791769
1	12	7.805597988954	0.20568587465
1	18	8.337521138804	0.529499109098
1	20	8.462376621307	0.255440596579
1	26	9.688512094076	1.155083426879
1	28	10.264073705897	1.130654076291
1	34	11.88582596059	0.812447359821
1	38	12.343237708751	0.884652854469
1	40	12.858013998451	0.765742662744
1	44	15.076945479501	0.119956189657
1	50	21.405830405163	0.59245305298
1	52	22.286380309425	1.435187888575
1	56	22.546228129909	0.17671939769
1	60	24.149445760343	0.735467777336
1	64	25.681115333414	0.39460102693
1	70	28.641546832475	1.201263941249
1	74	29.097875661752	0.758569568874
1	76	30.908050729458	1.838839926621
1	82	34.478799362213	0.65651239191
1	86	35.20550806942	0.790213611074
1	88	35.688472330949	0.746510106958
1	98	46.687996500785	6.007956353784
1	100	47.506827719328	5.52835271806
1	102	47.879818001648	3.903229124448
1	104	47.914875149589	2.494186584758
1	108	50.483335279735	1.272715813959
1	112	51.618158580776	0.54645892354
1	116	52.871052484561	0.574360423123
1	120	54.669663462932	0.330869024242
1	128	59.864212751577	2.305332237966
1	132	60.801861965711	2.919250526163
1	134	61.499756947085	3.092659496455
1	138	61.841971716355	1.219897481748
1	140	62.588137816036	0.748198742119
1	144	65.204117333607	0.819259441931
1	148	67.664346355467	1.367605410649
1	152	72.600722565225	1.762275945748
1	158	74.49191560174	1.73553668898
1	160	74.572193685645	1.486252586823
1	164	78.799384138638	1.035249023147
1	168	79.409088230455	0.369988293827
1	172	86.084549434498	0.742870586095
1	178	89.944353484813	3.172286536706
1	182	92.091653848831	3.273588188069
1	184	92.441824126702	0.785779215396
1	194	94.568598186898	0.718210647467
1	196	95.595029533655	1.593560772055
1	198	96.692229392745	2.581677501443
1	200	96.834277584032	2.537954132788
1	204	102.743487297092	1.454512436034
1	208	105.296415948827	0.079846822458
1	214	107.340008648147	0.40203672194
1	216	108.47897925892	1.281917869674
1	220	110.688655257835	0.711745208188
1	224	112.093152383982	1.064634546975
1	228	113.748501542024	0.921605736494
1	236	115.298962283945	1.269594802777
1	238	115.809360438053	0.731037729452
1	242	116.314438659299	1.191159922411
1	248	118.058202365085	1.861887096474
1	250	118.671615076303	0.971785747694
1	252	118.77468616682	1.048041782321
1	262	122.066206360247	1.846137066906
1	264	122.53459408132	2.216292335868
1	266	123.619529976168	2.827482839104
1	270	126.069175499993	4.11455676697
1	272	126.862757606104	1.189944589802
1	276	128.066456289355	0.290268437061
1	280	131.704442206633	0.027858406265
1	284	131.947350853399	0.23099592477
1	290	141.91768252745	0.893759863759
1	292	142.096392449694	0.776463711272
1	298	145.722552074843	1.813564465772
1	302	147.215110346748	2.667113379495
1	304	147.400285724554	0.690641804466
1	312	149.083023819549	1.456692483387
1	314	149.455143049668	1.343314345991
1	320	150.094556041294	1.366057954472
1	322	150.394602788434	0.849067615788
1	328	152.82609002983	2.825686860221
1	330	152.884489147413	2.399778846713
1	332	154.013235006635	2.771991527682
1	336	154.110492268709	0.021608056833
1	340	155.825635075523	1.08138450891
1	344	159.847032354455	0.099201291805
1	350	163.621856208607	1.778818974442
1	352	163.741483614736	1.314117334674
1	358	165.776713606265	0.836624111351
1	360	165.968632367873	0.300557185557
1	364	168.036829682495	1.563540645328
1	368	168.42649363793	0.034263131524
1	372	171.341175492963	1.589494022137
1	376	173.503241888879	1.169369380054
1	380	175.108916996062	0.676970061225
1	384	175.439912466065	0.092722678533
1	388	179.535770195182	2.773393268921
1	392	179.834269650264	0.088134433284
1	396	180.651448986442	0.633734895348
1	400	182.48988641764	1.637902468283
1	404	186.089346418816	0.089537967971
1	408	187.061085680623	0.280216035055
1	416	189.860451315752	2.233111158253
1	424	191.707522829309	3.023124804509
1	426	191.73099336253	2.173289321881
1	430	193.167904396846	2.307682321348
1	436	196.350936460319	5.068282739327
1	444	201.987828902638	10.315563607038
1	448	203.499123715285	11.243359797716
1	454	205.946404064172	10.565519540395
1	456	206.867609874803	11.372338921879
1	462	207.881617800195	9.512707597503
1	464	208.369496440446	9.229240310799
1	466	208.393251212996	8.033229767354
1	468	208.399870738934	4.903435830164
1	472	209.091437260259	4.250190615699
1	474	209.180388768086	3.636191758323
1	476	209.399433647598	2.191488603769
1	480	210.801363904668	3.091487617296
1	484	211.019103865771	2.125230161194
1	490	212.25725771849	2.476505926455
1	494	213.633980029693	2.799244473467
1	496	213.836108266887	2.769289908374
1	498	215.233907356213	3.98788909782
1	500	215.24910972335	2.611260111566
1	508	222.373521569226	2.4505189805
1	510	222.634854526152	1.91465663659
1	512	223.509212781754	2.058313111325
1	516	227.031540978106	0.374867357727
1	522	235.648445578417	6.358225553814
1	524	235.81098104467	4.142686051485
1	534	241.790039919814	5.199643457771
1	536	242.222446680679	5.487653004859
1	538	242.689525325324	3.190362234956
1	540	243.446802190954	3.680658622336
1	544	243.871393203828	0.390976045928
1	550	248.090635658161	1.64205080389
1	552	251.317525032587	4.578417065596
1	558	252.624515872483	0.775386898288
1	560	253.316314517294	1.064697341658
1	566	255.023603070016	1.615073301566
1	570	256.618639939924	2.571027788949
1	572	256.746321377296	0.525767376159
1	576	257.275884978756	0.282344150121
1	580	260.387773572012	0.985595500687
1	586	263.025301936129	0.473610537069
1	588	263.090862231176	0.423118083063
1	592	264.166122600049	0.467125588458
1	596	265.300672964841	0.077006167983
1	600	265.990317278569	0.04545980167
1	604	266.989345141787	0.346741417959
1	608	269.565772475223	1.404631537815
1	612	277.812504553387	3.062885853061
1	620	279.762754681725	0.888550395693
1	622	279.809273514071	0.672713409348
1	624	280.030013083817	0.719007140804
1	628	288.190692007774	0.043919269211
1	632	288.794703147987	0.484028245217
1	640	290.598679108213	1.518416159068
1	642	291.169255203817	1.714622426852
1	648	293.166136402069	3.172054942133
1	650	293.522200196428	0.647737122588
1	652	294.270176799545	1.243603568885
1	658	296.260251941401	1.692585669659
1	660	296.398504328965	0.479386745447
1	664	299.45684579206	1.273964497288
1	668	301.933681837185	0.069169317616
1	672	305.127423138768	0.01545979339
1	676	307.16139784487	0.790107588885
1	680	307.904344040861	0.096718969224
1	684	309.805825262267	0.188385154923
1	688	314.006309930442	0.405871114796
1	692	316.131412149807	0.124112084227
1	696	317.157463054847	0.826876784125
1	702	318.510470626541	0.529212572693
1	704	318.847121250815	0.53592951394
1	708	319.515897566051	0.507742394227
1	712	320.894105891359	0.557240391511
1	718	323.084752253663	2.170028411652
1	720	323.659319106173	1.472252362322
1	726	325.479821199038	0.959877756121
1	728	325.536731783263	0.251088020088
1	732	331.800091136995	2.638670347306
1	740	333.31188474907	1.415761805759
1	742	335.87483934784	3.798585983627
1	744	336.164735664801	2.900744727687
1	748	344.160175874859	3.446698023422
1	752	345.389335018401	0.150786540539
1	756	352.838130716776	1.244146485359
1	760	353.325983916648	0.071685708793
1	766	354.974560409263	0.928968589854
1	768	355.035930508252	0.283966246616
1	772	355.876070322263	0.450808429606
1	776	356.78803011444	0.299044394626
1	780	360.092222888177	0.026474358076
1	784	365.520998598987	1.318933862721
1	788	366.164206313809	0.600492428673
1	792	369.077604278062	1.989162275359
1	796	370.026579359756	0.754860797467
1	800	373.553256553308	1.890249254578
1	804	374.182384630221	0.384832839721
1	810	374.717678794896	0.385071864718
1	812	375.019219583872	0.347565609921
1	816	378.813297812701	0.553364942118
1	822	382.617036192953	2.229031545215
1	824	383.270397791859	2.558678997796
1	830	383.753445909878	0.428587420079
1	836	384.899631940388	1.39938594087
1	840	385.378719062045	1.365046410394
1	842	386.225335846707	1.585593394188
1	844	386.862087143851	1.868844193199
1	850	392.652015428539	1.713336426153
1	852	392.725506421861	1.688081448585
1	856	392.865450871808	0.112512275212
1	860	394.436729131269	0.708662959815
1	866	397.084797974936	0.564998121198
1	868	397.584817577014	0.66576992005
1	872	399.793181400967	0.62335196484
1	876	401.106333090212	0.669699333192
1	880	402.09255681556	0.381794295696
1	884	403.918618087431	0.770070800644
1	888	415.106782749108	1.428375893111
1	892	422.99334505147	2.010967724406
1	898	425.639290471726	1.603092254738
1	900	425.667841600132	0.949217785377
1	904	427.374010426229	0.745899375398
1	912	430.339389079907	1.110483412143
1	918	430.896453432555	1.476397641866
1	920	432.002285230162	2.28298327477
1	922	433.448353027532	2.788356205057
1	924	434.340757181654	3.524397260584
1	928	438.130546377078	1.326630268255
1	932	439.29370773052	0.457199685781
1	936	441.948863508589	0.00755865035
1	940	443.389609203049	0.341505407668
1	946	444.399636444741	0.514767637396
1	948	445.390993989441	1.130204640756
1	952	447.826126189985	0.598751229621
1	956	452.427176758708	0.604497267783
1	960	454.793667985782	0.020304332147
1	970	458.377205343938	3.283748352945
1	972	458.996574690372	3.518810782976
1	974	459.277491485887	3.338657958865
1	976	459.57411073537	1.316122145578
1	980	464.066598121192	0.547049822401
1	984	466.944663281969	0.543332993102
1	988	467.90874329115	0.801637866095
1	994	473.904668544119	1.073084757483
1	996	474.230875475293	0.599633236405
1	1000	481.659508921983	0.28331551256
1	1006	484.692541262844	1.044532207925
1	1008	484.726316136211	0.81479663947
1	1012	490.196035700939	2.121027311536
1	1016	491.147217032978	0.513264154673
1	1022	498.800490971065	1.727190382784
1	1024	500.143513729972	2.019194799937
1	1028	502.011074973268	1.381450405682
1	1032	506.303294273159	0.062740816058
1	1038	510.883348192531	3.362886811851
1	1042	511.926459752124	2.206267387011
1	1044	513.062390531901	1.513332306431
1	1048	513.926322915279	0.439210713982
1	1052	521.41912894257	0.180117114377
1	1056	522.884586792649	0.041680666116
1	1060	528.641367379129	0.791542481011
1	1072	540.317918943695	5.540651431252
1	1074	540.38551675256	4.537396216169
1	1078	541.24403701877	4.146071047163
1	1084	544.090564422793	5.554196811058
1	1086	544.373196686908	5.594548905013
1	1088	545.03514249566	4.176104118668
1	1092	545.692398192027	3.151283300536
1	1096	546.300459741614	2.996061816386
1	1104	547.544629342519	2.492315505792
1	1106	548.018828732411	1.917922773765
1	1108	548.214148692769	1.820426777369
1	1110	549.448724493149	2.709752599777
1	1112	549.727416981201	2.925832397107
1	1116	550.573941210786	0.230439076351
1	1122	553.177912227247	1.608757214879
1	1130	553.802425453778	2.089629177496
1	1132	554.122675569915	0.756265714837
1	1134	554.705106204309	1.245540164427
1	1136	554.841657744088	1.338766229272
1	1142	562.904752208303	0.910223249547
1	1144	563.449148321134	0.564908950221
1	1148	566.750515681955	0.307665114583
1	1152	568.797017678743	0.171046758418
1	1156	571.708848783602	0.547260217772
1	1162	575.055877680967	2.05051561034
1	1166	575.651009724974	1.715733022752
1	1170	577.105401202456	2.047886327229
1	1174	578.035561048416	1.893570715235
1	1176	579.460625514617	2.074071520378
1	1180	582.999397055267	0.602930824406
1	1186	585.643144344033	1.26032250879
1	1190	587.06303154491	2.615254698397
1	1192	587.263025099088	1.539444651134
1	1198	587.676517447995	0.364934507901
1	1200	588.378588086618	0.932277406618
1	1204	597.061461894079	0.02124784014
1	1208	599.296527640821	0.604038247858
1	1212	601.498016509482	0.593184619615
1	1222	606.491849597832	1.07944158027
1	1224	608.139132590893	2.387526817157
1	1226	608.60992390093	2.528667100066
1	1228	609.255146386361	2.824048155342
1	1232	611.273186104823	0.361507302666
1	1238	614.851496101444	0.36327062766
1	1240	615.676660946494	1.178781465379
1	1250	619.523005998811	3.04923719992
1	1252	620.856686088911	4.062186341828
1	1256	621.418205214562	3.566638640385
1	1258	622.858983637942	3.441943769962
1	1266	626.593695600674	5.499288432852
1	1268	629.334587782352	5.52563518952
1	1270	629.562842816038	5.048426379455
1	1272	630.445302552775	5.009239549242
1	1280	634.531945216231	2.611360024819
1	1282	636.96807647646	3.178694198864
1	1284	637.246185101483	3.174070561749
1	1288	639.164683817783	0.117427062377
1	1292	641.49892506195	0.260325189392
1	1300	646.286567349319	1.43239976092
1	1302	646.381966313252	1.381853630458
1	1306	647.873584736245	1.809630441467
1	1308	648.847601024706	1.152986128641
1	1314	650.669991434505	0.056395629134
1	1316	650.709158596349	0.046312092844
1	1324	654.748988207567	2.38022571163
1	1326	654.946861083245	2.125257200046
1	1328	656.272734002114	3.444484240553
1	1334	660.181692822649	3.151232235802
1	1336	660.26677053746	2.971155372374
1	1340	661.328366980022	0.783523390167
1	1344	662.677746250802	0.242426747463
1	1348	666.713445626578	1.162560013248
1	1354	668.12585214377	0.760482161255
1	1356	668.270932974123	0.787583095143
1	1360	670.209519964799	0.632525050747
1	1364	671.661503166241	0.51963925989
1	1370	675.410491639903	1.074809960842
1	1372	676.013918068433	1.012696877079
1	1376	682.463084918077	1.643699200238
1	1388	691.777805463884	4.907200264037
1	1394	693.414791617607	6.015175670472
1	1404	695.996480101587	8.489929972725
1	1406	696.295288577534	8.592900274794
1	1408	696.659638548456	7.825775882137
1	1412	697.010772768153	4.666444794049
1	1420	700.384130428411	7.128744914851
1	1424	702.507625681146	8.946541082224
1	1426	704.486146256753	10.665764481527
1	1428	705.300488919343	9.564565020716
1	1430	705.35520004178	9.606906879484
1	1438	707.615446776375	10.817969190519
1	1442	709.325582008926	11.301411202
1	1446	710.09817806794	10.480886091155
1	1450	710.813141093848	10.844931465488
1	1454	712.453836071046	10.324236712628
1	1456	712.940806518012	7.077907992264
1	1458	714.600655032299	8.566235536719
1	1460	714.779276424751	7.164751245451
1	1464	714.973253265122	6.275505020798
1	1468	716.288916135704	6.601003227414
1	1470	717.56190686015	7.204226962585
1	1472	717.660471979765	6.208912181328
1	1478	720.271518958329	5.307328278105
1	1480	720.433602973036	4.299061941669
1	1482	720.732858531704	2.882233701773
1	1484	720.90010785088	0.808313045536
1	1490	723.760964990598	0.778165863839
1	1492	728.170310404005	4.846804313871
1	1496	730.702909081523	0.582156292097
1	1500	732.579200582508	1.664974099406
1	1506	733.511919484034	0.304902870616
1	1510	733.814624625597	0.345371323412
1	1512	736.712879313818	2.916733731936
1	1516	741.235860718847	0.184458779149
1	1524	743.008713432909	0.419800594996
1	1526	743.527455768164	0.729094779184
1	1530	745.574716793746	2.579589621515
1	1534	746.557009144615	2.168605809256
1	1538	747.350072841087	1.512245864111
1	1542	747.693506502278	0.938483847014
1	1544	748.65316776631	1.298089006551
1	1550	750.328672002409	1.37054588957
1	1554	753.004478779363	3.354526573879
1	1556	753.258347422504	0.265845603986
1	1560	754.248051999376	0.084556221095
1	1564	756.623494619562	0.203500015795
1	1568	757.65785866267	0.149067330659
1	1572	763.202530646055	0.65334933842
1	1578	763.955124470905	0.716075465161
1	1584	766.963273160763	3.409858595648
1	1586	767.679852882599	3.668640675
1	1592	769.299951588176	4.49987160469
1	1598	770.105897968308	2.128005520352
1	1600	770.137900282656	0.974594929425
1	1604	771.119923620215	1.421015426502
1	1610	774.627764032563	4.789609037737
1	1620	778.097079319251	7.514194669722
1	1624	780.183382721718	7.87765117986
1	1626	781.649110741113	8.994551205978
1	1630	783.981884516286	8.841598554319