version 3
run General-4-20221027-10:37:26-16912
attr configname General
attr datetime 20221027-10:37:26
attr datetimef 20221027-103726
attr experiment General
attr inifile simu_1.ini
attr iterationvars ""
attr iterationvarsd ""
attr iterationvarsf ""
attr measurement ""
attr network Rete
attr processid 16912
attr repetition 4
attr replication #4
attr resultdir results
attr runnumber 4
attr seedset 4
config network Rete
config record-eventlog false
config repeat 10
config sim-time-limit 1000s
config simtime-resolution ps
config **.Servente.serviceTime exponential(1s)
config **.Arrivi.interArrivalTime exponential(2s)

vector 0 Rete.Servente queueLength:vector ETV
attr interpolationmode sample-hold
attr recordingmode vector
attr title "queue length"
vector 1 Rete.Pozzo lifeTime:vector ETV
attr interpolationmode none
attr recordingmode vector
attr title "lifetime of arrived jobs"
attr unit s
0	0	0	0
0	8	11.821107183401	1
0	9	15.042238320568	0
0	12	15.691733404676	1
0	13	16.296858994251	0
0	24	19.695464339754	1
0	26	20.203974217431	2
0	28	20.216473709485	3
0	30	22.613915213078	4
0	31	23.131613557187	3
0	34	23.197248175121	4
0	36	24.338369458409	5
0	37	25.466500030966	4
0	40	26.342955237822	5
0	42	26.353300246307	6
0	44	26.79380838542	7
0	45	26.977826807875	6
0	48	28.492739095974	7
0	49	28.965551784395	6
0	52	29.389994843088	7
0	54	31.243343438194	8
0	56	31.601219398514	9
0	58	32.595611246366	10
0	59	33.063944933456	9
0	62	34.414906651697	10
0	64	34.432960077628	11
0	65	34.734980363544	10
0	67	35.223671574295	9
0	69	35.533563514247	8
0	71	35.578728314277	7
0	74	36.329169745878	8
0	75	36.611312057779	7
0	77	38.277648971121	6
0	79	38.850610047664	5
0	81	38.869818087722	4
0	83	41.845302871198	3
0	85	41.885896102349	2
0	88	42.606203767622	3
0	89	43.429106222437	2
0	91	45.441182969048	1
0	93	46.032404085942	0
0	104	49.707582565743	1
0	106	50.094415284016	2
0	108	50.462194095557	3
0	109	50.489796035753	2
0	111	51.811727511471	1
0	113	53.666606468712	0
0	136	68.034460009314	1
0	137	68.133874291444	0
0	140	68.553978273348	1
0	141	68.92177764378	0
0	144	69.028413924213	1
0	146	69.427074121298	2
0	147	69.664964345192	1
0	149	70.044931631691	0
0	156	72.008752824178	1
0	157	72.506409552244	0
0	160	72.949939418379	1
0	161	73.012081816644	0
0	168	75.457609504041	1
0	170	75.75635321412	2
0	172	76.150753992851	3
0	173	76.411352333237	2
0	175	76.882277615975	1
0	177	77.315638793786	0
0	180	77.871505860983	1
0	181	78.013864973045	0
0	184	79.132791137996	1
0	185	79.174353989902	0
0	192	80.195178417654	1
0	194	80.778316609596	2
0	195	80.830612809749	1
0	197	80.879178768884	0
0	200	82.739606349604	1
0	201	83.137758093199	0
0	208	88.579990116181	1
0	209	89.056133394803	0
0	216	92.180766487199	1
0	218	92.338217451535	2
0	219	92.599746063277	1
0	222	92.741092633109	2
0	223	93.756797761322	1
0	225	96.69565883518	0
0	232	98.511169238171	1
0	233	99.525592911214	0
0	272	122.788509482479	1
0	274	122.87985996338	2
0	276	123.443137266068	3
0	277	123.531271886365	2
0	280	123.643215724615	3
0	282	124.13356027036	4
0	283	124.850257013665	3
0	285	126.495407839917	2
0	287	127.218465871374	1
0	289	127.324249173028	0
0	316	143.597838627018	1
0	318	143.64155023348	2
0	320	143.741053179129	3
0	321	144.143972050157	2
0	323	144.26030152698	1
0	325	144.627045092083	0
0	328	145.211803511126	1
0	329	145.779131626008	0
0	340	154.369745369851	1
0	341	155.949689998966	0
0	356	165.45990926109	1
0	357	165.971219731405	0
0	376	178.487081009551	1
0	377	178.527712960684	0
0	404	193.594733740459	1
0	405	193.832056210384	0
0	408	193.833450547424	1
0	410	193.983508197732	2
0	411	194.375119323788	1
0	413	194.589847233567	0
0	420	198.643573519215	1
0	421	199.614731833447	0
0	444	213.861814439655	1
0	445	213.914641952131	0
0	456	216.155858423074	1
0	457	216.842380007779	0
0	476	232.316743110526	1
0	478	232.751326300906	2
0	480	234.004134770391	3
0	481	234.985274835348	2
0	484	235.652781874507	3
0	486	235.673744695533	4
0	487	236.424943172637	3
0	489	236.686174049645	2
0	492	238.469023239865	3
0	494	238.544139470112	4
0	495	240.660600506556	3
0	497	240.748756992477	2
0	499	240.789673909804	1
0	501	241.875278472386	0
0	520	254.864579709152	1
0	521	255.596370186411	0
0	536	263.004167019096	1
0	538	264.28136403952	2
0	539	265.70383646012	1
0	541	266.710515612837	0
0	564	281.53490572766	1
0	565	282.001987205953	0
0	572	286.315596842072	1
0	573	287.466306334542	0
0	576	287.661067251564	1
0	577	288.740888032417	0
0	588	296.614660166914	1
0	589	296.841856695733	0
0	596	300.89643257234	1
0	597	303.918236058757	0
0	612	309.547974195621	1
0	614	309.802679097064	2
0	616	309.988605263143	3
0	618	310.503508615527	4
0	619	310.68754974899	3
0	621	312.174644490275	2
0	623	313.719851630784	1
0	626	314.040586329196	2
0	627	315.269411788296	1
0	629	316.321307731928	0
0	632	316.371509416567	1
0	633	316.736711698332	0
0	636	317.106162682626	1
0	637	317.324671568143	0
0	644	329.711793169957	1
0	645	330.849218957674	0
0	656	333.629097942386	1
0	657	335.269321226308	0
0	664	339.637943164524	1
0	666	340.296375418028	2
0	667	341.284817926387	1
0	669	342.668084932512	0
0	684	349.736672019714	1
0	685	350.47431485555	0
0	688	351.061536068971	1
0	690	352.100641807458	2
0	691	352.630187113768	1
0	694	354.126513086082	2
0	695	355.666125332993	1
0	697	355.682746317629	0
0	716	374.699902692743	1
0	718	374.9168450357	2
0	719	375.033879407887	1
0	721	375.132684394241	0
0	724	375.168981985392	1
0	725	375.603232403765	0
0	732	376.220618356265	1
0	733	376.558640240166	0
0	736	377.222818937066	1
0	737	379.474236809358	0
0	744	380.523380073458	1
0	745	381.317480791346	0
0	748	381.472512167426	1
0	749	382.263747220472	0
0	752	382.466581344947	1
0	754	383.186706555511	2
0	755	384.972485187364	1
0	757	385.602718550004	0
0	760	385.839130980359	1
0	761	387.344665088652	0
0	772	398.112781290343	1
0	773	398.142344883747	0
0	780	400.458087052416	1
0	781	401.361007929495	0
0	784	401.416851643677	1
0	785	401.766657624379	0
0	792	407.845089922169	1
0	794	408.886031278269	2
0	796	409.246961316219	3
0	797	409.279150983932	2
0	799	409.541484974797	1
0	801	409.586401285577	0
0	808	417.04861276057	1
0	810	417.679306090447	2
0	811	418.334000549639	1
0	814	418.507989584478	2
0	815	418.955477993168	1
0	818	419.507255665609	2
0	819	419.508502003049	1
0	822	420.137678725842	2
0	824	420.400695074112	3
0	825	420.917652749034	2
0	828	420.98005912583	3
0	829	421.528186811017	2
0	831	421.795696453888	1
0	833	422.68154141361	0
0	844	427.475137020424	1
0	846	427.768324406914	2
0	847	428.139862330916	1
0	849	428.930414715848	0
0	856	434.301116231321	1
0	858	434.708929211109	2
0	860	434.826743986048	3
0	862	435.055302532735	4
0	864	436.647014396562	5
0	865	436.777809031691	4
0	868	436.836938071849	5
0	869	437.693593615648	4
0	872	438.336434111757	5
0	874	438.793528796927	6
0	875	440.957292091561	5
0	877	441.3038197797	4
0	879	442.019020609837	3
0	882	443.979006011595	4
0	883	444.611785732533	3
0	885	444.810814339198	2
0	888	446.828961143468	3
0	889	448.536577008707	2
0	892	448.875382287756	3
0	894	449.087326428162	4
0	895	449.870279943364	3
0	897	450.44328421679	2
0	899	453.238429010238	1
0	901	454.574451925959	0
0	916	459.988184813105	1
0	917	460.325418138405	0
0	920	461.586423801803	1
0	921	462.336260806348	0
0	944	483.489829017948	1
0	945	483.626895743635	0
0	948	483.926201718649	1
0	949	484.11072248857	0
0	956	485.996587535068	1
0	958	486.402093228081	2
0	959	486.960404559451	1
0	962	487.436485842233	2
0	963	488.996219092608	1
0	966	489.112225908396	2
0	967	489.430713368757	1
0	969	489.611230684125	0
0	996	504.972660185729	1
0	998	505.162764652189	2
0	999	505.646771766362	1
0	1001	506.647233928055	0
0	1008	508.449752855091	1
0	1009	509.113779595331	0
0	1012	509.147288522093	1
0	1013	509.598527653153	0
0	1032	516.691347146174	1
0	1034	516.978792553381	2
0	1035	516.987611830596	1
0	1038	518.862555331752	2
0	1039	519.185931441673	1
0	1042	519.382154633182	2
0	1043	519.70808064621	1
0	1046	520.492468260135	2
0	1048	520.922608132576	3
0	1049	521.711261066627	2
0	1051	521.732821675726	1
0	1053	522.640408588081	0
0	1076	531.50849849416	1
0	1077	532.466550825741	0
0	1088	539.176593043361	1
0	1089	540.327310625388	0
0	1100	545.706109042509	1
0	1101	545.951812066292	0
0	1112	556.850480048724	1
0	1114	558.200843745782	2
0	1115	558.264162266859	1
0	1117	559.613700921351	0
0	1128	563.265733592183	1
0	1130	563.729504453319	2
0	1131	564.216995219357	1
0	1134	564.847278991917	2
0	1135	566.056187886351	1
0	1138	566.256937557221	2
0	1139	567.928243941531	1
0	1142	568.362599715733	2
0	1143	571.616322019459	1
0	1145	571.862434435823	0
0	1156	582.388565179373	1
0	1157	583.097068464695	0
0	1164	588.240473224656	1
0	1165	588.416348277217	0
0	1176	595.954406457015	1
0	1178	596.05557202515	2
0	1179	596.537111001929	1
0	1181	596.75416210048	0
0	1212	616.187617716071	1
0	1214	618.247317239172	2
0	1215	618.59071345409	1
0	1217	618.709013891135	0
0	1232	624.686904600856	1
0	1233	624.811435831694	0
0	1236	626.237564457009	1
0	1237	626.401975352842	0
0	1248	629.064317229592	1
0	1249	629.811715217227	0
0	1260	638.134490694252	1
0	1261	638.400274328715	0
0	1272	647.313498066212	1
0	1273	647.460413170115	0
0	1288	658.311008287749	1
0	1290	658.572250858032	2
0	1291	658.728985286146	1
0	1293	658.83487642866	0
0	1308	670.367530155755	1
0	1310	671.382020377762	2
0	1311	671.990807294175	1
0	1313	672.556012041725	0
0	1316	672.732912908619	1
0	1317	674.947531968733	0
0	1320	676.786528784481	1
0	1321	677.340484023265	0
0	1328	680.944262989794	1
0	1329	681.291241400244	0
0	1336	684.130452510269	1
0	1337	685.549522393267	0
0	1352	698.011244310144	1
0	1353	699.279081680543	0
0	1368	703.424955737075	1
0	1370	703.543567066563	2
0	1371	703.598722697525	1
0	1373	703.943489289169	0
0	1376	705.931951573478	1
0	1378	706.493184240671	2
0	1379	707.046048430282	1
0	1382	708.090854973702	2
0	1383	708.635256383758	1
0	1385	708.636037583236	0
0	1388	708.675875796014	1
0	1389	709.850498118839	0
0	1420	738.831366396865	1
0	1421	739.073802912158	0
0	1424	739.074196114627	1
0	1426	741.169836084373	2
0	1428	741.213243515774	3
0	1429	743.120035805005	2
0	1431	743.847250266851	1
0	1434	744.010508194907	2
0	1435	744.762372230954	1
0	1437	744.806617250036	0
0	1440	745.344559328757	1
0	1441	745.787823082206	0
0	1464	756.955239938161	1
0	1466	758.15416873444	2
0	1467	758.671051119764	1
0	1469	758.856920358799	0
0	1472	758.933335565714	1
0	1474	759.666628018461	2
0	1475	760.14571423083	1
0	1477	761.708766492605	0
0	1480	761.793635436841	1
0	1481	762.176034392451	0
0	1516	778.395100510533	1
0	1517	778.753066327548	0
0	1532	791.570225572488	1
0	1534	791.650460165456	2
0	1535	791.933164088046	1
0	1538	792.332217819443	2
0	1540	792.502710645354	3
0	1541	793.037103285458	2
0	1543	793.376919801174	1
0	1545	795.160421830741	0
0	1548	796.334820855527	1
0	1549	796.354703605654	0
0	1552	796.823604009095	1
0	1553	797.053196015647	0
0	1560	798.9804631962	1
0	1562	799.093766874318	2
0	1563	799.182298832949	1
0	1565	800.327811571593	0
0	1568	800.625651142913	1
0	1570	802.259336357587	2
0	1571	803.57982544946	1
0	1574	805.587794182975	2
0	1575	805.85155195374	1
0	1577	807.732441134441	0
0	1584	812.819078615893	1
0	1585	813.820279330073	0
0	1588	814.689550530977	1
0	1589	815.212122860786	0
0	1596	818.61024601046	1
0	1597	818.707505389463	0
0	1612	825.06799492946	1
0	1614	825.108526023411	2
0	1616	826.396962254334	3
0	1617	828.075912892964	2
0	1619	828.205608953605	1
0	1621	828.30878945327	0
0	1624	828.311823163677	1
0	1625	828.422948813372	0
0	1636	832.714536257519	1
0	1637	833.970691509745	0
0	1640	834.413329978176	1
0	1641	834.818028445543	0
0	1648	839.478298867784	1
0	1650	839.963614893105	2
0	1652	840.379368058542	3
0	1653	840.556373892442	2
0	1656	840.906516825734	3
0	1657	840.961026736329	2
0	1659	841.089918921157	1
0	1661	841.149256911047	0
0	1692	861.332787257598	1
0	1693	861.43530950596	0
0	1704	875.090682384282	1
0	1705	875.244570321968	0
0	1720	880.537047509339	1
0	1722	880.631595618629	2
0	1723	880.778019054405	1
0	1726	880.80450637971	2
0	1727	880.879886148554	1
0	1729	881.541705229891	0
0	1736	887.531050124127	1
0	1737	887.703560414056	0
0	1744	893.026494308252	1
0	1745	893.396598421501	0
0	1768	907.461685301712	1
0	1769	907.531783370472	0
0	1772	907.683372938914	1
0	1774	908.202790352316	2
0	1775	908.214722269481	1
0	1777	909.685791499551	0
0	1804	919.936882523475	1
0	1805	920.029281502473	0
0	1816	933.883354927891	1
0	1818	934.013335394157	2
0	1820	934.721910972763	3
0	1821	935.48884234502	2
0	1824	936.502408430777	3
0	1825	937.921027630647	2
0	1828	938.551432698877	3
0	1829	938.802152435989	2
0	1831	939.150529136927	1
0	1833	939.24190995384	0
0	1844	946.999349639911	1
0	1845	947.008236275134	0
0	1860	955.241798223468	1
0	1862	955.729620876649	2
0	1863	955.789771944918	1
0	1865	957.397144033003	0
0	1888	979.698617496767	1
0	1889	980.646255190633	0
0	1892	980.668869530818	1
0	1894	982.612385693515	2
0	1895	982.880021490238	1
0	1897	983.464969601904	0
0	1900	983.537168262715	1
0	1901	984.122938553287	0
0	1904	985.975316491466	1
0	1906	986.118383500549	2
0	1907	986.46123066043	1
0	1910	988.617840668836	2
0	1912	989.841930888321	3
0	1913	990.021612906585	2
0	1916	990.271619367662	3
0	1918	990.774321520587	4
0	1919	993.194530953868	3
0	1921	994.351977893362	2
0	1923	994.972872599868	1
0	1926	995.107947255553	2
0	1928	995.537849099083	3
0	1929	995.85896900152	2
0	1932	996.217548836424	3
0	1934	997.154452448908	4
0	1935	997.66720483698	3
0	1937	998.380080752214	2
0	1939	999.494689540774	1
0	1941	999.992233880314	0
1	4	7.616680623662	0.792375985293
1	10	15.042238320568	3.600295620919
1	14	16.296858994251	4.47575181085
1	16	17.493289726097	1.801556321421
1	20	17.81347136255	0.243460424051
1	32	23.131613557187	3.741202951962
1	38	25.466500030966	5.771035691212
1	46	26.977826807875	6.773852590444
1	50	28.965551784395	8.74907807491
1	60	33.063944933456	10.450029720378
1	66	34.734980363544	11.537732188423
1	68	35.223671574295	10.885302115886
1	70	35.533563514247	9.190608276425
1	72	35.578728314277	9.22542806797
1	76	36.611312057779	9.817503672359
1	78	38.277648971121	9.784909875147
1	80	38.850610047664	9.460615204576
1	82	38.869818087722	7.626474649528
1	84	41.845302871198	10.244083472684
1	86	41.885896102349	9.290284855983
1	90	43.429106222437	9.01419957074
1	92	45.441182969048	11.00822289142
1	94	46.032404085942	9.703234340064
1	96	46.22255471474	3.616350947118
1	100	48.48509373196	0.077905961129
1	110	50.489796035753	0.918149275528
1	112	51.811727511471	2.104144945728
1	114	53.666606468712	3.572191184696
1	116	54.191605152046	3.729411056489
1	120	55.230859036604	0.750583142881
1	124	62.43863338024	2.773734737794
1	128	64.48756989659	0.737509025587
1	132	67.471300479919	0.114505971004
1	138	68.133874291444	0.172240629608
1	142	68.92177764378	0.887317634466
1	148	69.664964345192	1.110986071844
1	150	70.044931631691	1.016517707478
1	152	70.558252770822	1.131178649524
1	158	72.506409552244	1.049265460058
1	162	73.012081816644	1.003328992466
1	164	73.99002488158	1.040085463201
1	174	76.411352333237	1.458456396332
1	176	76.882277615975	1.424668111934
1	178	77.315638793786	1.559285579666
1	182	78.013864973045	1.863110980194
1	186	79.174353989902	1.302848128919
1	188	79.466954341191	0.334163203195
1	196	80.830612809749	0.80909883945
1	198	80.879178768884	0.68400035123
1	202	83.137758093199	2.359441483603
1	204	83.588513897708	0.848907548104
1	210	89.056133394803	1.014888246436
1	212	89.268641710589	0.688651594408
1	220	92.599746063277	0.688745125448
1	224	93.756797761322	1.576031274123
1	226	96.69565883518	4.357441383645
1	228	97.26097949469	4.519886861581
1	234	99.525592911214	1.77306390999
1	236	100.064777383946	1.553608145775
1	240	105.040895248503	2.350385442678
1	244	105.605163507026	0.518900156352
1	248	106.369767553944	0.402232097687
1	252	111.515344076786	0.848956367164
1	256	113.478138963816	1.867196523678
1	260	117.335334294462	1.973384282635
1	264	118.911839153964	0.905568711727
1	268	120.495895860723	0.088461459437
1	278	123.531271886365	0.909480491758
1	284	124.850257013665	2.061747531186
1	286	126.495407839917	3.615547876537
1	288	127.218465871374	3.775328605306
1	290	127.324249173028	3.681033448413
1	292	128.249488600598	4.115928330238
1	296	128.701800374361	0.067281274153
1	300	129.544027179724	0.776691271496
1	304	134.668709956048	0.138327770921
1	308	135.83931521933	0.953377112491
1	312	137.130302130498	0.452007102033
1	322	144.143972050157	1.459975524728
1	324	144.26030152698	0.662462899962
1	326	144.627045092083	0.985494858603
1	330	145.779131626008	2.038078446879
1	332	146.502024237544	1.290220726418
1	336	149.640900819685	0.847794527728
1	342	155.949689998966	1.856022751646
1	344	156.618608353719	2.248862983868
1	348	159.588553509061	1.661491614679
1	352	161.731518803897	0.713847219009
1	358	165.971219731405	2.613476933051
1	360	167.07061563706	1.61070637597
1	364	171.159447392195	0.161022215979
1	368	171.99062408649	0.453426859429
1	372	174.858910400243	2.008237174349
1	378	178.527712960684	0.431221803373
1	380	178.737231941759	0.250150932208
1	384	179.459093305475	0.639836415245
1	388	186.182238088848	0.498866045007
1	392	187.421280544171	0.964771992367
1	396	191.370126224844	0.574060620887
1	400	192.674990804738	0.302352028901
1	406	193.832056210384	0.531831736925
1	412	194.375119323788	0.780385583329
1	414	194.589847233567	0.756396686143
1	416	198.482865144489	4.499356946757
1	422	199.614731833447	0.977020086959
1	424	199.701580442468	1.058006923253
1	428	204.151851827489	1.320501811404
1	432	209.500200282604	1.135334581268
1	436	211.510611928168	1.748831425993
1	440	212.941297046299	0.426869564195
1	446	213.914641952131	0.0606847205
1	448	214.860932767771	0.999118328116
1	452	215.235238526329	0.132405878978
1	458	216.842380007779	1.425157980227
1	460	218.424316162695	2.268457739621
1	464	219.479618269779	0.525307959549
1	468	224.649034556097	2.878794132104
1	472	226.951334635857	0.190893948916
1	482	234.985274835348	2.857464585971
1	488	236.424943172637	4.108200062111
1	490	236.686174049645	3.934847748739
1	496	240.660600506556	6.656465736165
1	498	240.748756992477	5.09597511797
1	500	240.789673909804	5.115929214271
1	502	241.875278472386	3.406255232521
1	504	241.891378663662	3.34723919355
1	508	246.572382795419	0.783707349905
1	512	247.575086889006	0.034464762539
1	516	251.207624624389	1.071438767126
1	522	255.596370186411	0.765508434693
1	524	256.694657722317	1.830078013165
1	528	259.986873305452	0.582215479565
1	532	261.12471936084	0.318102052132
1	540	265.70383646012	2.989132969921
1	542	266.710515612837	3.706348593741
1	544	266.716859633772	2.435495594252
1	548	266.991866455299	0.104613861971
1	552	269.239800752568	0.998836394231
1	556	273.940034947113	0.339729094509
1	560	279.618345096247	0.523609787965
1	566	282.001987205953	1.521111713854
1	568	282.439168293686	0.904262566026
1	574	287.466306334542	2.601106980887
1	578	288.740888032417	2.425291190345
1	580	289.54368588689	1.882618635326
1	584	291.947179233587	0.19962826294
1	590	296.841856695733	0.526940420981
1	592	298.28105318277	1.666393015856
1	598	303.918236058757	4.688205876607
1	600	303.994741769603	3.098309197263
1	604	305.473762222055	0.144739808097
1	608	307.436671517692	1.347245720998
1	620	310.68754974899	1.794451325559
1	622	312.174644490275	2.626670294654
1	624	313.719851630784	3.91717253372
1	628	315.269411788296	5.280806525153
1	630	316.321307731928	5.817799116401
1	634	316.736711698332	2.696125369136
1	638	317.324671568143	0.953162151576
1	640	317.780908219387	0.674745536761
1	646	330.849218957674	1.835498624309
1	648	331.247195388894	1.535402218937
1	652	332.307166523413	0.389456404074
1	658	335.269321226308	2.737852755487
1	660	337.794891763984	4.165793821598
1	668	341.284817926387	3.463311006496
1	670	342.668084932512	3.030141767988
1	672	342.759011906568	2.46263648854
1	676	343.687514073065	0.095311780935
1	680	347.008485441245	0.814370792612
1	686	350.47431485555	1.939218964425
1	692	352.630187113768	2.893515094054
1	696	355.666125332993	4.604589264022
1	698	355.682746317629	3.582104510171
1	700	355.847486067351	1.720972981269
1	704	360.615272280558	0.25049024203
1	708	361.520900265979	0.404208643979
1	712	370.647350504612	0.296796714705
1	720	375.033879407887	0.374264500108
1	722	375.132684394241	0.432781701498
1	726	375.603232403765	0.686387368065
1	728	375.633458646712	0.46447666132
1	734	376.558640240166	0.771717922745
1	738	379.474236809358	3.253618453093
1	740	380.063249584945	2.840430647879
1	746	381.317480791346	0.978573778985
1	750	382.263747220472	1.740367147014
1	756	384.972485187364	3.499973019938
1	758	385.602718550004	3.136137205057
1	762	387.344665088652	4.157958533141
1	764	387.753911448782	1.914780468423
1	768	397.566988968185	2.380164535177
1	774	398.142344883747	0.204823928408
1	776	398.666563577397	0.553782287054
1	782	401.361007929495	1.337321268402
1	786	401.766657624379	1.308570571963
1	788	403.939392607478	2.522540963801
1	798	409.279150983932	1.970808615401
1	800	409.541484974797	1.696395052628
1	802	409.586401285577	0.700370007308
1	804	409.640260900806	0.393299584587
1	812	418.334000549639	1.957017556682
1	816	418.955477993168	1.906865232598
1	820	419.508502003049	1.829195912602
1	826	420.917652749034	2.409663164556
1	830	421.528186811017	2.020931145408
1	832	421.795696453888	1.658017728046
1	834	422.68154141361	2.280846339498
1	836	423.509714199991	2.529655074161
1	840	425.187287596064	0.226605852261
1	848	428.139862330916	0.716185099231
1	850	428.930414715848	1.455277695424
1	852	429.395365072273	1.627040665359
1	866	436.777809031691	3.083888169527
1	870	437.693593615648	3.392477384327
1	876	440.957292091561	6.248362880452
1	878	441.3038197797	6.477075793652
1	880	442.019020609837	6.963718077102
1	884	444.611785732533	7.964771335971
1	886	444.810814339198	7.973876267349
1	890	448.536577008707	10.20014289695
1	896	449.870279943364	11.076751146437
1	898	450.44328421679	6.464278205195
1	900	453.238429010238	6.40946786677
1	902	454.574451925959	5.699069638203
1	904	455.231782561344	6.144456133182
1	908	456.322139577288	1.078498634064
1	912	458.963686981052	0.19826758457
1	918	460.325418138405	0.574517346034
1	922	462.336260806348	2.348075993243
1	924	463.197192677498	1.610768875695
1	928	465.054609233167	0.327745465975
1	932	477.305666473067	0.131008006536
1	936	481.052683746902	0.263777023938
1	940	482.428531373935	0.133522899797
1	946	483.626895743635	0.266286505318
1	950	484.11072248857	0.620893470622
1	952	484.154568351392	0.228366632743
1	960	486.960404559451	1.824555635961
1	964	488.996219092608	2.99963155754
1	968	489.430713368757	3.028620140676
1	970	489.611230684125	2.174744841892
1	972	489.753764772972	0.641538864576
1	976	491.220494212186	0.086329003582
1	980	491.991746569823	0.170233559239
1	984	498.845877651891	4.284879920186
1	988	500.730735137168	0.110390077421
1	992	503.343750430545	0.549316862825
1	1000	505.646771766362	2.079940441502
1	1002	506.647233928055	1.674573742326
1	1004	506.664923131414	1.502158479225
1	1010	509.113779595331	2.195549226727
1	1014	509.598527653153	1.148774798062
1	1016	509.782126277749	0.634837755656
1	1020	511.261811416027	0.411251564596
1	1024	512.77964981229	0.901767050604
1	1028	515.116265242466	0.038475979266
1	1036	516.987611830596	1.030884091687
1	1040	519.185931441673	2.494584295499
1	1044	519.70808064621	2.729288092829
1	1050	521.711261066627	2.848705734875
1	1052	521.732821675726	2.350667042544
1	1054	522.640408588081	2.147940327946
1	1056	523.517286006762	2.594677874186
1	1060	524.132301150411	0.589430694769
1	1064	528.764987856966	1.845518877947
1	1068	529.330215849554	0.221963811775
1	1072	530.008294596714	0.580888797721
1	1078	532.466550825741	1.100978673614
1	1080	532.537332396567	1.028833902407
1	1084	536.537243025754	0.439027006516
1	1090	540.327310625388	1.158477893455
1	1092	540.608443388771	1.43185034541
1	1096	545.05150325023	0.452521057773
1	1102	545.951812066292	0.861243271627
1	1104	546.478488635035	0.772379592526
1	1108	552.063929659097	2.093796131167
1	1116	558.264162266859	1.965265194049
1	1118	559.613700921351	2.763220872627
1	1120	560.169299325321	1.968455579539
1	1124	562.002981870724	0.210881538889
1	1132	564.216995219357	1.018498191936
1	1136	566.056187886351	2.790454294168
1	1140	567.928243941531	4.198739488212
1	1144	571.616322019459	6.769043027542
1	1146	571.862434435823	5.605496878602
1	1148	573.513995828408	5.151396112675
1	1152	574.118968745091	0.131495332806
1	1158	583.097068464695	2.380138138843
1	1160	584.227379906063	1.83881472669
1	1166	588.416348277217	0.384817530577
1	1168	589.725655642888	1.485182418232
1	1172	595.404323023531	0.644288295749
1	1180	596.537111001929	0.823330047199
1	1182	596.75416210048	0.799755643465
1	1184	596.918434624232	0.862862599082
1	1188	598.201406136618	0.449388965793
1	1192	602.119356617171	0.572230815999
1	1196	602.962375881695	0.059458221655
1	1200	612.05758881864	1.2863857113
1	1204	613.318876988563	0.395719896605
1	1208	614.207179655452	0.647892529982
1	1216	618.59071345409	2.95762385282
1	1218	618.709013891135	2.521396175064
1	1220	619.027974998523	0.780657759351
1	1224	622.808022791704	0.511278557713
1	1228	624.017042277826	0.846844438907
1	1234	624.811435831694	0.127244813539
1	1238	626.401975352842	1.715070751986
1	1240	626.793170696487	0.555606239478
1	1244	627.247502239554	0.122878229782
1	1250	629.811715217227	1.228264963539
1	1252	630.535132411336	1.470815181744
1	1256	633.8816855474	0.027474390606
1	1262	638.400274328715	0.827327041382
1	1264	639.845083106619	1.710592412367
1	1268	642.998794191995	0.031534699441
1	1274	647.460413170115	1.071739484841
1	1276	647.748284469516	0.434786403304
1	1280	648.946688885053	0.571418712458
1	1284	657.748209023496	0.07490397177
1	1292	658.728985286146	0.759775402174
1	1294	658.83487642866	0.523868140911
1	1296	659.198454729832	0.6262038718
1	1300	664.226057712937	0.065645666211
1	1304	668.781108510482	1.885364887179
1	1312	671.990807294175	2.948725913953
1	1314	672.556012041725	2.18848188597
1	1318	674.947531968733	3.565511590971
1	1322	677.340484023265	4.607571114646
1	1324	678.666696702261	1.88016791778
1	1330	681.291241400244	1.779795296971
1	1332	681.467983630473	0.523720640679
1	1338	685.549522393267	1.867814252946
1	1340	686.086764420219	1.95631190995
1	1344	694.389467188835	0.337835013613
1	1348	695.929007034294	0.825221964649
1	1354	699.279081680543	1.94836581347
1	1356	699.846775142558	1.835530832414
1	1360	700.89209053153	0.080959297434
1	1364	702.769338449571	0.338664235996
1	1372	703.598722697525	0.335907706623
1	1374	703.943489289169	0.518533552094
1	1380	707.046048430282	3.502481363719
1	1384	708.635256383758	2.70330481028
1	1386	708.636037583236	2.142853342565
1	1390	709.850498118839	1.759643145137
1	1392	710.010346509688	1.334470713674
1	1396	717.843198631477	0.063609982433
1	1400	722.92169120743	1.046991093011
1	1404	729.081199928646	0.471208062262
1	1408	730.679161485617	0.59930668778
1	1412	732.936787035582	0.076862085689
1	1416	733.78881090956	0.653326304884
1	1422	739.073802912158	0.931770475198
1	1430	743.120035805005	4.28866940814
1	1432	743.847250266851	4.773054152224
1	1436	744.762372230954	3.592536146581
1	1438	744.806617250036	3.593373734262
1	1442	745.787823082206	1.777314887299
1	1444	747.706326273707	2.36176694495
1	1448	749.731817919995	0.689220717454
1	1452	752.953600202505	0.84999086938
1	1456	754.313344799842	0.698269316395
1	1460	756.186612124873	1.591804485248
1	1468	758.671051119764	2.37445836715
1	1470	758.856920358799	1.901680420638
1	1476	760.14571423083	1.99154549639
1	1478	761.708766492605	2.775430926891
1	1482	762.176034392451	2.50940637399
1	1484	763.803106890653	2.009471453812
1	1488	765.536307961698	1.187619511325
1	1492	766.376750108061	0.677024384194
1	1496	767.550220454436	0.848451032996
1	1500	772.113095995879	2.974742705103
1	1504	775.291322571478	1.02212383954
1	1508	776.53679657513	1.007559685781
1	1512	777.071950620381	0.47906841188
1	1518	778.753066327548	1.522822185245
1	1520	780.811795717435	2.416695206902
1	1524	786.203023700551	0.37032623698
1	1528	786.952014768091	0.39513629599
1	1536	791.933164088046	1.118396131844
1	1542	793.037103285458	1.46687771297
1	1544	793.376919801174	1.726459635718
1	1546	795.160421830741	2.828204011298
1	1550	796.354703605654	3.8519929603
1	1554	797.053196015647	0.71837516012
1	1556	797.920847775776	1.097243766681
1	1564	799.182298832949	0.98413480905
1	1566	800.327811571593	1.347348375393
1	1572	803.57982544946	4.486058575142
1	1576	805.85155195374	5.225900810827
1	1578	807.732441134441	5.473104776854
1	1580	808.914471417388	3.326677234413
1	1586	813.820279330073	1.618045298422
1	1590	815.212122860786	2.393044244893
1	1592	818.043994850867	3.35444431989
1	1598	818.707505389463	0.416201473547
1	1600	819.099691437298	0.489445426838
1	1604	821.715615687229	0.011992954073
1	1608	823.220325698439	0.070216654412
1	1618	828.075912892964	3.261642232581
1	1620	828.205608953605	3.137614024145
1	1622	828.30878945327	3.200263429859
1	1626	828.422948813372	2.025986559038
1	1628	829.15193069917	0.840107535493
1	1632	831.522729864634	1.054121031734
1	1638	833.970691509745	1.796474616007
1	1642	834.818028445543	2.103492188024
1	1644	835.224347755147	0.811017776971
1	1654	840.556373892442	1.206667205666
1	1658	840.961026736329	1.482727868545
1	1660	841.089918921157	1.126304028052
1	1662	841.149256911047	0.769888852505
1	1664	842.290846750101	1.384329924367
1	1668	846.0905907447	0.775771797539
1	1672	848.025027500663	0.578879985003
1	1676	851.376010855583	0.261710509344
1	1680	855.083583065548	1.855925999919
1	1684	857.030399871555	0.504950784475
1	1688	859.637962126445	2.43383021465
1	1694	861.43530950596	0.317170500215
1	1696	862.449356712596	1.116569454998
1	1700	873.073205860532	1.337434392946
1	1706	875.244570321968	0.185454737032
1	1708	875.445554963444	0.354872579162
1	1712	877.131066930259	1.446709037778
1	1716	879.729247016885	0.093668748453
1	1724	880.778019054405	0.650759430801
1	1728	880.879886148554	0.342838639215
1	1730	881.541705229891	0.910109611262
1	1732	883.344723329991	2.540216950281
1	1738	887.703560414056	0.264453036877