version 3
run General-18-20221028-09:56:52-16128
attr configname General
attr datetime 20221028-09:56:52
attr datetimef 20221028-095652
attr experiment General
attr inifile simu_1.ini
attr iterationvars ""
attr iterationvarsd ""
attr iterationvarsf ""
attr measurement ""
attr network Rete
attr processid 16128
attr repetition 18
attr replication #18
attr resultdir results
attr runnumber 18
attr seedset 18
config network Rete
config record-eventlog false
config repeat 30
config sim-time-limit 1000s
config simtime-resolution ps
config **.Servente.serviceTime exponential(1s)
config **.Arrivi.interArrivalTime exponential(2s)

vector 0 Rete.Servente queueLength:vector ETV
attr interpolationmode sample-hold
attr recordingmode vector
attr title "queue length"
vector 1 Rete.Pozzo lifeTime:vector ETV
attr interpolationmode none
attr recordingmode vector
attr title "lifetime of arrived jobs"
attr unit s
0	0	0	0
0	4	2.259893649765	1
0	5	2.805897774869	0
0	8	3.393365008533	1
0	10	3.954245138184	2
0	12	4.3556404055	3
0	13	4.91457433415	2
0	15	6.826693361859	1
0	17	7.05481478361	0
0	24	9.158896506384	1
0	25	10.232668346773	0
0	28	10.272256878233	1
0	30	11.956206469407	2
0	32	12.550239941784	3
0	33	14.646842121966	2
0	35	14.675556378852	1
0	38	16.339551767931	2
0	40	18.359211877751	3
0	41	18.539383993376	2
0	44	19.140400300814	3
0	45	20.418745206657	2
0	48	20.758462086186	3
0	49	21.751213046872	2
0	51	21.772239677536	1
0	53	22.112777793917	0
0	64	25.036763435496	1
0	66	25.708713648229	2
0	67	25.743033388572	1
0	69	26.716269467875	0
0	76	30.660725817818	1
0	77	30.734880795641	0
0	88	38.47557486648	1
0	89	38.563970830535	0
0	100	47.348474683733	1
0	102	48.453702608847	2
0	103	49.71836968331	1
0	106	49.748522661475	2
0	108	51.945349373146	3
0	110	52.367025802324	4
0	112	52.841794847395	5
0	113	53.254989641216	4
0	116	54.390224364511	5
0	117	54.902785534471	4
0	119	55.287986533415	3
0	122	55.726233135295	4
0	124	56.422331838878	5
0	125	56.776768609252	4
0	127	57.136187560315	3
0	130	58.843249661822	4
0	131	59.007746034558	3
0	133	59.798400754494	2
0	135	60.602554788461	1
0	137	61.050723196808	0
0	164	79.388918605092	1
0	165	80.225022364466	0
0	184	95.303801774935	1
0	186	96.923417244297	2
0	188	97.434752392997	3
0	190	97.561554957675	4
0	192	97.783452393636	5
0	194	98.025015133189	6
0	196	98.057885331019	7
0	197	98.453952476467	6
0	199	98.871936802767	5
0	202	99.385031099665	6
0	203	99.506370072277	5
0	205	99.752413732744	4
0	207	99.997444607622	3
0	209	100.033714796497	2
0	212	102.687615100051	3
0	213	102.761023800155	2
0	216	103.59342091397	3
0	218	103.707495650836	4
0	220	103.729651298394	5
0	222	106.529398149842	6
0	223	107.226247434288	5
0	225	107.629521528418	4
0	227	108.785859168447	3
0	230	109.602728248676	4
0	231	110.259280699008	3
0	233	110.914601334113	2
0	236	111.052598403451	3
0	237	111.228097983814	2
0	240	111.85362769654	3
0	241	112.321070606509	2
0	243	113.822212356528	1
0	246	113.823070731039	2
0	247	114.380070702702	1
0	249	114.669166553782	0
0	252	115.114322393139	1
0	254	115.40576141991	2
0	256	116.777093430366	3
0	257	119.07435879569	2
0	260	119.641166299787	3
0	261	120.187644471947	2
0	263	120.750218373478	1
0	265	120.96827487282	0
0	272	126.99094724926	1
0	273	127.520588222685	0
0	276	128.326357756612	1
0	278	128.357297249954	2
0	279	128.682559898702	1
0	281	129.302444377218	0
0	288	131.951042526722	1
0	290	132.443573363924	2
0	291	132.879467769343	1
0	294	133.528705907525	2
0	295	133.967801051502	1
0	298	134.821017438964	2
0	299	134.863856734007	1
0	302	135.112534755887	2
0	303	135.561162285923	1
0	306	136.01213020951	2
0	308	136.801666311125	3
0	310	137.274944445307	4
0	311	137.287744547762	3
0	313	137.566147298974	2
0	316	137.595323829612	3
0	317	139.155222442504	2
0	319	139.895968939143	1
0	321	140.968441004516	0
0	364	170.779832728089	1
0	365	170.837989421786	0
0	384	180.46467435758	1
0	385	180.873203347803	0
0	392	183.532696974878	1
0	393	185.139284922747	0
0	396	185.241261903537	1
0	397	185.351838231481	0
0	416	203.770217322187	1
0	417	203.898587835305	0
0	420	204.155183715109	1
0	421	204.673693941768	0
0	428	207.785145210789	1
0	429	208.056112432798	0
0	444	219.192788765535	1
0	445	219.754337806406	0
0	448	220.281196735105	1
0	449	220.533228168297	0
0	456	223.14605068078	1
0	457	224.511052596668	0
0	464	224.870498236061	1
0	465	225.036991459752	0
0	468	228.791953595497	1
0	470	229.238726606481	2
0	471	229.536278149024	1
0	473	230.433282314774	0
0	476	230.566890136113	1
0	477	231.310401307562	0
0	484	236.142714786947	1
0	485	237.427140374412	0
0	496	245.280809307443	1
0	497	246.862716140312	0
0	516	255.179441197073	1
0	517	256.248133559849	0
0	524	257.57200183757	1
0	525	258.258191294417	0
0	540	260.526918577017	1
0	541	261.115013693829	0
0	552	265.148230177338	1
0	554	265.220154115381	2
0	555	265.70371286597	1
0	557	265.988846286909	0
0	580	285.652269226486	1
0	581	285.882782685643	0
0	604	304.455810038967	1
0	606	306.153810479624	2
0	607	306.924680675966	1
0	609	309.050722551281	0
0	640	324.993479168842	1
0	641	325.213549687803	0
0	656	330.924651058751	1
0	658	332.436993789799	2
0	659	332.446793369182	1
0	661	332.531502499378	0
0	664	335.342876354142	1
0	665	337.909476276479	0
0	668	337.973109000528	1
0	669	341.951591694669	0
0	672	342.216216571182	1
0	674	342.391990924047	2
0	675	344.031791370641	1
0	677	344.594275415807	0
0	684	349.761324824757	1
0	685	350.132714569428	0
0	696	357.351559364601	1
0	697	357.66033637396	0
0	708	362.890533080009	1
0	710	364.112029600011	2
0	712	366.361718932056	3
0	713	369.08764534762	2
0	716	369.127649362596	3
0	718	369.43640539788	4
0	720	371.84658253387	5
0	721	371.867765196707	4
0	723	372.695690090652	3
0	726	372.72181772339	4
0	727	373.21740916426	3
0	729	374.561927360916	2
0	731	374.603739518612	1
0	734	374.652190242676	2
0	735	375.801017966798	1
0	737	375.892491160766	0
0	744	378.00609116893	1
0	745	378.22725887976	0
0	748	378.281450338018	1
0	749	379.18491332158	0
0	752	380.80629685236	1
0	754	382.425005935055	2
0	756	383.399135682692	3
0	757	384.979883760173	2
0	759	385.571155351611	1
0	761	385.574799940121	0
0	772	388.705046764654	1
0	774	388.730675961061	2
0	776	389.505762655119	3
0	777	390.047101460041	2
0	780	390.663504523822	3
0	781	390.713571906951	2
0	783	390.922648608791	1
0	786	391.307691708027	2
0	787	391.644208113647	1
0	790	391.984632014229	2
0	792	393.15247883451	3
0	793	394.427924637243	2
0	796	394.499592805265	3
0	798	395.78660906366	4
0	800	395.983292885333	5
0	802	396.502286674764	6
0	804	397.004696459601	7
0	805	397.391044595604	6
0	807	398.236008208135	5
0	810	398.508047750241	6
0	811	400.096303900508	5
0	813	400.796371147364	4
0	815	400.919258952413	3
0	817	402.276031223001	2
0	819	403.503147585289	1
0	821	403.630308889622	0
0	828	405.675467297292	1
0	829	406.342097302488	0
0	832	407.113710730758	1
0	834	407.675078781389	2
0	835	407.684365626389	1
0	837	410.461336664088	0
0	848	416.528125767424	1
0	849	417.279324611639	0
0	856	420.063608429493	1
0	858	420.194955058498	2
0	860	420.455562739638	3
0	862	421.709247221907	4
0	864	421.806651771626	5
0	866	422.526932568303	6
0	867	423.029401287403	5
0	869	423.150886315524	4
0	871	423.408648135501	3
0	873	423.698448780201	2
0	876	423.84581455654	3
0	878	424.14351399833	4
0	879	427.16610860353	3
0	881	427.34117880119	2
0	883	427.363401401232	1
0	885	428.023634275297	0
0	892	429.832635157339	1
0	893	429.953505743027	0
0	896	430.656236038188	1
0	897	431.267073281115	0
0	904	437.457151384697	1
0	905	437.491960594292	0
0	920	447.566397712542	1
0	921	447.657501424713	0
0	936	452.143968306634	1
0	937	452.148808159732	0
0	952	463.269085887338	1
0	954	463.442266983095	2
0	955	464.281443152941	1
0	957	464.621187829718	0
0	960	464.896847278159	1
0	961	467.601228628972	0
0	964	467.790635115524	1
0	965	467.854841622679	0
0	968	468.280357103402	1
0	969	468.722310829874	0
0	976	469.723653920916	1
0	977	471.091961752096	0
0	984	472.494648749261	1
0	985	472.570785760646	0
0	988	473.863019683442	1
0	989	473.880009111209	0
0	996	477.549145274634	1
0	998	478.460280693544	2
0	999	479.302029003604	1
0	1001	479.723556161065	0
0	1008	480.927893541493	1
0	1010	481.660776100591	2
0	1011	481.777848177591	1
0	1013	482.7966180529	0
0	1024	485.897727447714	1
0	1025	485.979313781872	0
0	1028	486.634429347158	1
0	1029	488.457422865071	0
0	1032	489.636204184315	1
0	1033	490.268801419548	0
0	1048	497.235377241563	1
0	1049	497.850308586377	0
0	1052	497.995062093192	1
0	1053	499.602883267039	0
0	1056	499.643044108951	1
0	1057	499.766756733237	0
0	1064	507.636873503135	1
0	1065	508.525962032173	0
0	1076	514.930959688191	1
0	1078	515.093515558012	2
0	1079	515.893037443867	1
0	1082	516.589244329902	2
0	1084	518.927150541216	3
0	1086	520.690794589555	4
0	1087	521.406923294476	3
0	1089	522.036373010425	2
0	1091	522.319139812867	1
0	1093	522.638805350944	0
0	1104	526.737091387749	1
0	1105	527.00102494866	0
0	1108	527.504324878656	1
0	1109	529.292766832631	0
0	1112	529.680952198247	1
0	1113	529.986601052981	0
0	1116	530.148859977792	1
0	1118	531.005570357644	2
0	1120	532.810739002185	3
0	1121	532.883183447115	2
0	1123	533.128766705728	1
0	1125	534.453781697293	0
0	1132	536.954027427765	1
0	1133	537.900366660117	0
0	1136	537.970879434945	1
0	1137	538.013529232248	0
0	1140	538.02177608643	1
0	1141	538.794419307902	0
0	1144	538.908786859669	1
0	1146	539.070716825571	2
0	1147	539.829226297747	1
0	1149	542.451803453792	0
0	1168	549.248749347011	1
0	1169	549.295408313116	0
0	1172	549.891022955598	1
0	1173	550.017691760429	0
0	1184	552.563557580864	1
0	1185	553.482458805261	0
0	1212	566.518957937152	1
0	1213	566.7925770321	0
0	1220	570.041668428999	1
0	1222	570.502441389443	2
0	1223	570.817471581203	1
0	1225	573.411211964788	0
0	1252	587.499353376953	1
0	1254	588.645268101485	2
0	1256	588.822221530734	3
0	1257	591.450294061381	2
0	1260	591.953237354972	3
0	1261	593.028768548593	2
0	1264	593.572120995578	3
0	1266	593.829834334069	4
0	1268	594.073312388065	5
0	1269	594.370534470569	4
0	1271	594.597094427125	3
0	1274	594.896540985534	4
0	1275	595.434314794251	3
0	1277	595.548474741313	2
0	1280	596.578138752668	3
0	1281	596.588285749326	2
0	1283	598.529028990147	1
0	1285	598.768834881224	0
0	1308	612.53277221574	1
0	1309	613.290300636728	0
0	1316	616.812544475081	1
0	1317	617.754161799212	0
0	1352	635.761077390788	1
0	1354	636.480618135649	2
0	1355	636.595573891499	1
0	1357	637.844435903234	0
0	1368	640.862768803953	1
0	1369	641.122275225952	0
0	1408	667.385793234896	1
0	1410	670.128701106372	2
0	1411	670.238999318075	1
0	1413	671.077133344592	0
0	1436	687.349248444641	1
0	1438	687.386644946981	2
0	1439	688.032823038301	1
0	1441	692.167874186622	0
0	1448	701.30866871354	1
0	1449	701.559951308304	0
0	1452	702.96941531987	1
0	1453	703.118235368449	0
0	1468	712.799041509038	1
0	1470	715.457515254668	2
0	1471	716.933521745712	1
0	1473	717.179560811741	0
0	1512	742.27572010755	1
0	1513	742.96915371413	0
0	1532	758.802019949465	1
0	1533	759.683347538501	0
0	1536	760.568503393776	1
0	1538	761.685233286739	2
0	1539	761.689582445766	1
0	1541	762.022353667223	0
0	1568	774.26262836135	1
0	1569	774.411643711144	0
0	1572	774.689588785175	1
0	1573	775.416515777545	0
0	1580	776.01478138104	1
0	1581	776.486143255648	0
0	1600	783.311320669098	1
0	1601	783.556971787748	0
0	1604	785.298834257881	1
0	1605	785.406666713193	0
0	1608	785.549234751955	1
0	1610	786.102681168652	2
0	1611	786.327514707625	1
0	1613	786.521862559721	0
0	1616	786.558006288164	1
0	1617	786.780548535435	0
0	1672	810.148484846117	1
0	1674	811.196298708489	2
0	1675	812.590982735648	1
0	1677	813.095826791071	0
0	1692	826.913145099739	1
0	1693	828.333785463088	0
0	1700	834.035093123371	1
0	1701	834.083318570031	0
0	1708	834.857042879375	1
0	1709	836.336387867659	0
0	1712	836.656064364683	1
0	1713	836.782540488871	0
0	1736	851.924276658778	1
0	1738	852.079331280601	2
0	1739	852.198971906037	1
0	1741	852.482120867897	0
0	1756	858.67613378081	1
0	1757	859.084278930715	0
0	1772	868.3882115952	1
0	1774	868.389150614837	2
0	1775	869.552812365416	1
0	1777	869.664253183008	0
0	1780	870.213331352112	1
0	1781	870.416121439736	0
0	1784	871.13141235924	1
0	1786	871.807411126643	2
0	1788	872.147188545123	3
0	1789	872.258780739435	2
0	1791	873.837840244201	1
0	1793	874.022364848034	0
0	1796	874.425454525579	1
0	1797	875.647700079119	0
0	1800	875.723344750392	1
0	1801	877.164330215314	0
0	1804	877.458870324998	1
0	1805	878.249454753853	0
0	1828	902.037016028257	1
0	1829	903.868003095256	0
0	1848	912.624429749917	1
0	1850	912.913938726352	2
0	1852	913.122977498935	3
0	1854	913.237418703024	4
0	1855	914.924290410011	3
0	1857	916.108938942863	2
0	1859	916.342376843217	1
0	1861	917.072747426056	0
0	1872	920.680573317332	1
0	1873	920.712530470161	0
0	1880	921.972641534467	1
0	1881	922.339439006628	0
0	1896	927.07919238274	1
0	1897	928.600222775379	0
0	1904	930.186646260402	1
0	1905	931.271896906743	0
0	1920	933.398485223306	1
0	1922	934.544188248515	2
0	1923	934.5724998618	1
0	1925	934.637214667539	0
0	1936	937.934386603153	1
0	1938	938.809574917116	2
0	1939	939.036403635615	1
0	1941	939.891888432948	0
0	1948	942.5612117145	1
0	1950	943.276488779209	2
0	1951	943.686451043486	1
0	1954	943.823776298857	2
0	1955	944.187891730004	1
0	1957	944.347071602309	0
0	1960	944.533971175857	1
0	1962	946.633598148363	2
0	1963	947.393536762094	1
0	1965	947.65852096295	0
0	1976	953.13443704088	1
0	1977	953.682661929094	0
0	1988	956.361909505474	1
0	1989	956.768740548588	0
0	1996	958.819604268151	1
0	1998	959.106105555616	2
0	2000	960.009203262984	3
0	2002	960.190964839261	4
0	2004	960.899364658071	5
0	2006	961.161971895328	6
0	2008	961.192232358719	7
0	2009	961.515590626589	6
0	2011	962.414383567741	5
0	2014	962.71939156498	6
0	2015	962.875577517816	5
0	2017	963.002941183261	4
0	2019	963.514401699275	3
0	2021	964.030023312023	2
0	2023	964.050596768956	1
0	2025	964.348437986204	0
0	2032	965.613700221426	1
0	2033	966.186499922339	0
0	2044	974.955463807285	1
0	2045	975.994508835689	0
0	2048	977.354192296242	1
0	2050	977.451661231398	2
0	2051	977.653420784114	1
0	2053	978.000718382429	0
0	2056	978.576535775178	1
0	2058	980.465189217416	2
0	2060	980.536135735239	3
0	2061	981.45772589713	2
0	2063	984.562543061373	1
0	2065	985.130432564646	0
0	2072	988.082510101986	1
0	2073	988.150293942426	0
0	2076	988.680891705508	1
0	2077	988.706256401147	0
0	2092	993.388516699061	1
0	2093	993.670615664055	0
0	2100	994.015588686639	1
0	2102	996.077015748039	2
0	2103	996.458396881717	1
0	2105	996.631055020823	0
0	2108	997.070224512288	1
0	2109	997.743354136027	0
0	2112	998.662040031929	1
0	2113	998.855869427552	0
1	6	2.805897774869	0.704113847429
1	14	4.91457433415	2.654680684385
1	16	6.826693361859	3.433328353326
1	18	7.05481478361	3.100569645426
1	20	8.44165445982	4.08601405432
1	26	10.232668346773	1.09691872834
1	34	14.646842121966	5.487945615582
1	36	14.675556378852	4.403299500619
1	42	18.539383993376	6.583177523969
1	46	20.418745206657	7.868505264873
1	50	21.751213046872	5.411661278941
1	52	21.772239677536	3.413027799785
1	54	22.112777793917	2.972377493103
1	56	22.231114500278	1.472652414092
1	60	22.916285020441	0.353428421747
1	68	25.743033388572	1.161456855311
1	70	26.716269467875	1.679506032379
1	72	26.937707422201	1.228993773972
1	78	30.734880795641	1.070576081321
1	80	31.937706339453	1.276980521635
1	84	32.714798138693	0.434470425382
1	90	38.563970830535	1.560459893933
1	92	40.24623719008	1.7706623236
1	96	44.281017439182	0.219925339353
1	104	49.71836968331	2.984897137267
1	114	53.254989641216	5.906514957483
1	118	54.902785534471	6.449082925624
1	120	55.287986533415	5.53946387194
1	126	56.776768609252	4.831419236106
1	128	57.136187560315	4.769161757991
1	132	59.007746034558	6.165951187163
1	134	59.798400754494	5.408176389983
1	136	60.602554788461	4.876321653166
1	138	61.050723196808	4.62839135793
1	140	61.263517239991	2.420267578169
1	144	63.615147213907	1.252661550398
1	148	66.592652894635	1.021291181927
1	152	72.133640279353	0.761862586917
1	156	73.867006721452	0.849866283917
1	160	76.291272716609	0.0124092159
1	166	80.225022364466	1.188224043993
1	168	80.990007624339	1.601089019247
1	172	83.511271015288	0.082441523808
1	176	84.713080412369	0.013731347365
1	180	91.44780342341	0.325526609971
1	198	98.453952476467	5.946598964181
1	200	98.871936802767	3.568135027832
1	204	99.506370072277	2.58295282798
1	206	99.752413732744	2.317661339747
1	208	99.997444607622	2.435889649947
1	210	100.033714796497	2.250262402861
1	214	102.761023800155	4.736008666966
1	224	107.226247434288	9.168362103269
1	226	107.629521528418	8.244490428753
1	228	108.785859168447	6.098244068396
1	232	110.259280699008	6.665859785038
1	234	110.914601334113	7.207105683277
1	238	111.228097983814	7.49844668542
1	242	112.321070606509	5.791672456667
1	244	113.822212356528	4.219484107852
1	248	114.380070702702	3.327472299251
1	250	114.669166553782	2.815538857242
1	258	119.07435879569	5.251288064651
1	262	120.187644471947	5.073322078808
1	264	120.750218373478	5.344456953568
1	266	120.96827487282	4.191181442454
1	268	121.270702108172	1.629535808385
1	274	127.520588222685	2.885916269695
1	280	128.682559898702	1.691612649442
1	282	129.302444377218	0.976086620606
1	284	129.338453890654	0.9811566407
1	292	132.879467769343	2.366577243464
1	296	133.967801051502	2.01675852478
1	300	134.863856734007	2.420283370083
1	304	135.561162285923	2.032456378398
1	312	137.287744547762	2.466727108798
1	314	137.566147298974	2.453612543087
1	318	139.155222442504	3.143092232994
1	320	139.895968939143	3.094302628018
1	322	140.968441004516	3.693496559209
1	324	143.214403013495	5.619079183883
1	328	146.198815790597	1.581899212193
1	332	147.96030207268	0.992505512599
1	336	155.930368085864	0.069486195293
1	340	160.136748671858	1.547731601668
1	344	160.746003070038	0.476305081018
1	348	162.231199468243	0.636053270132
1	352	162.370556884908	0.082404556903
1	356	163.807509049756	0.166546385483
1	360	165.94109813764	0.47350446385
1	366	170.837989421786	0.432713124264
1	368	170.886659942761	0.106827214672
1	372	172.110464516954	0.270923533618
1	376	177.313288479455	0.218709577972
1	380	178.311163619208	0.488494563826
1	386	180.873203347803	1.794508009891
1	388	182.364619527776	1.899945170196
1	394	185.139284922747	1.627267079018
1	398	185.351838231481	1.819141256603
1	400	186.426912446653	1.185650543116
1	404	189.068199220163	0.768873571049
1	408	194.558262168259	0.646314118456
1	412	197.586002981329	1.042394083019
1	418	203.898587835305	0.669954667689
1	422	204.673693941768	0.903476619581
1	424	207.1883941982	3.033210483091
1	430	208.056112432798	0.607990726316
1	432	209.068755672569	1.28361046178
1	436	211.913505569418	0.924725360289
1	440	218.028780737784	0.29618916469
1	446	219.754337806406	1.423699967044
1	450	220.533228168297	1.340439402762
1	452	220.877752944113	0.596556209008
1	458	224.511052596668	2.018107397771
1	460	224.522770114226	1.376719433446
1	466	225.036991459752	0.346989973224
1	472	229.536278149024	4.665779912963
1	474	230.433282314774	1.641328719277
1	478	231.310401307562	2.071674701081
1	480	231.328732356354	0.761842220241
1	486	237.427140374412	2.212775515536
1	488	237.556474361608	1.413759574661
1	492	242.561019402318	1.010979901678
1	498	246.862716140312	2.172913136261
1	500	247.026089485898	1.745280178455
1	504	248.534075902085	0.502075829293
1	508	249.920453779476	0.796115173673
1	512	252.633683718772	0.639554432459
1	518	256.248133559849	1.371823554127
1	520	257.109717590221	1.930276393148
1	526	258.258191294417	0.774654638501
1	528	258.794705549718	1.222703712148
1	532	259.239959026813	0.305835613808
1	536	259.37311603914	0.041307515063
1	542	261.115013693829	1.692752566411
1	544	262.192003551654	1.665084974637
1	548	264.154386848079	0.278203057834
1	556	265.70371286597	1.092215519543
1	558	265.988846286909	0.840616109571
1	560	266.743397760755	1.523243645374
1	564	270.020000434878	1.870196754513
1	568	271.576784774745	0.395134832133
1	572	273.785504567918	0.161039298933
1	576	276.911216113647	1.530276984347
1	582	285.882782685643	2.134805845151
1	584	287.594201539706	1.94193231322
1	588	292.719140764451	0.691742154106
1	592	293.928838472239	0.566362238178
1	596	299.835522891134	0.397245114252
1	600	302.964668339272	0.756524086557
1	608	306.924680675966	3.480070975052
1	610	309.050722551281	4.594912512314
1	612	311.115243253885	4.961432774261
1	616	311.893786113288	0.414927977889
1	620	313.764323673343	1.677809576769
1	624	314.864453400896	0.478006233586
1	628	315.898283772844	0.007743566634
1	632	316.300678350581	0.120867741728
1	636	322.000019169983	1.177070209504
1	642	325.213549687803	1.351356593121
1	644	325.711994707453	0.718515538611
1	648	326.749757212483	0.348846442191
1	652	329.85202324399	1.030681076118
1	660	332.446793369182	2.335772099376
1	662	332.531502499378	1.606851440627
1	666	337.909476276479	5.47248248668
1	670	341.951591694669	6.608715340527
1	676	344.031791370641	6.058682370113
1	678	344.594275415807	2.378058844625
1	680	345.818372241727	3.42638131768
1	686	350.132714569428	1.920283515846
1	688	350.539910927222	0.778586102465
1	692	356.05243369645	0.726014389287
1	698	357.66033637396	0.48024824898
1	700	359.705688364001	2.3541289994
1	704	362.192587357943	0.332520687513
1	714	369.08764534762	6.872310854237
1	722	371.867765196707	8.977232116698
1	724	372.695690090652	8.583660490641
1	728	373.21740916426	6.855690232204
1	730	374.561927360916	5.43427799832
1	732	374.603739518612	5.167334120732
1	736	375.801017966798	3.954435432928
1	738	375.892491160766	3.170673437376
1	740	376.663263990219	2.011073747543
1	746	378.22725887976	0.379989735235
1	750	379.18491332158	1.17882215265
1	758	384.979883760173	6.698433422155
1	760	385.571155351611	4.764858499251
1	762	385.574799940121	3.149794005066
1	764	385.710422832037	2.311287149345
1	768	386.236901459335	0.483068176368
1	778	390.047101460041	2.458542477667
1	782	390.713571906951	2.008525142297
1	784	390.922648608791	2.19197264773
1	788	391.644208113647	2.138445458528
1	794	394.427924637243	3.764420113421
1	806	397.391044595604	6.083352887577
1	808	398.236008208135	6.251376193906
1	812	400.096303900508	6.943825065998
1	814	400.796371147364	6.296778342099
1	816	400.919258952413	5.132649888753
1	818	402.276031223001	6.292738337668
1	820	403.503147585289	7.000860910525
1	822	403.630308889622	6.625612430021
1	824	405.048279107143	6.540231356902
1	830	406.342097302488	0.71297379174
1	836	407.684365626389	2.008898329097
1	838	410.461336664088	3.34762593333
1	840	410.711643078056	3.036564296667
1	844	413.970910007153	0.989479476285
1	850	417.279324611639	1.204003042344
1	852	417.809845758751	1.281719991327
1	868	423.029401287403	3.358595863204
1	870	423.150886315524	3.087277886031
1	872	423.408648135501	3.213693077003
1	874	423.698448780201	3.242886040563
1	880	427.16610860353	5.456861381623
1	882	427.34117880119	5.534527029564
1	884	427.363401401232	4.836468832929
1	886	428.023634275297	4.177819718757
1	888	428.056015138121	3.912501139791
1	894	429.953505743027	0.407285619294
1	898	431.267073281115	1.434438123776
1	900	431.335453629331	0.679217591143
1	906	437.491960594292	0.381591795442
1	908	437.706647041291	0.249495656594
1	912	441.470196352223	0.348065082057
1	916	443.299087958272	0.737368484877
1	922	447.657501424713	0.58847053938
1	924	447.671189073374	0.104791360832
1	928	449.900058078252	0.916458078
1	932	450.606239666432	0.453895468425
1	938	452.148808159732	0.019193524789
1	940	452.158430582352	0.014462275718
1	944	452.548823443567	0.153183896525
1	948	456.206048601621	2.107917313717
1	956	464.281443152941	1.288871689999
1	958	464.621187829718	1.35210194238
1	962	467.601228628972	4.158961645877
1	966	467.854841622679	2.95799434452
1	970	468.722310829874	0.93167571435
1	972	468.801723144039	0.521366040637
1	978	471.091961752096	1.538641050711
1	980	471.772329793781	2.048675872865
1	986	472.570785760646	0.780857761899
1	990	473.880009111209	1.385360361948
1	992	473.900357956348	0.037338272906
1	1000	479.302029003604	3.138269826575
1	1002	479.723556161065	2.174410886431
1	1004	479.817118148284	1.35683745474
1	1012	481.777848177591	1.120601205851
1	1014	482.7966180529	1.868724511407
1	1016	484.090136838823	2.429360738232
1	1020	484.7588563625	0.221580917474
1	1026	485.979313781872	1.139240492808
1	1030	488.457422865071	2.559695417357
1	1034	490.268801419548	3.63437207239
1	1036	491.101254923242	1.465050738927
1	1040	493.517369330706	0.379162615125
1	1044	496.534926773906	0.392789705231
1	1050	497.850308586377	1.239061250191
1	1054	499.602883267039	2.367506025476
1	1058	499.766756733237	1.771694640045
1	1060	500.098106211787	0.455062102836
1	1066	508.525962032173	1.095768429836
1	1068	508.973945561612	1.337072058477
1	1072	510.492967633526	0.343914327579
1	1080	515.893037443867	2.082011859569
1	1088	521.406923294476	6.475963606285
1	1090	522.036373010425	6.942857452413
1	1092	522.319139812867	5.729895482965
1	1094	522.638805350944	3.711654809728
1	1096	522.836373495946	2.145578906391
1	1100	524.672853933111	0.284588890615
1	1106	527.00102494866	0.455345461646
1	1110	529.292766832631	2.555675444882
1	1114	529.986601052981	2.482276174325
1	1122	532.883183447115	3.202231248868
1	1124	533.128766705728	2.979906727936
1	1126	534.453781697293	3.448211339649
1	1128	534.914989014357	2.104250012172
1	1134	537.900366660117	1.219184758994
1	1138	538.013529232248	1.059501804483
1	1142	538.794419307902	0.823539872957
1	1148	539.829226297747	1.807450211317
1	1150	542.451803453792	3.543016594123
1	1152	542.6682318643	3.597515038729
1	1156	545.14005944153	1.103790545817
1	1160	547.028941361123	1.274397307943
1	1164	548.630743510598	0.349382198023
1	1170	549.295408313116	0.216362990314
1	1174	550.017691760429	0.768942413418
1	1176	550.878702675907	0.987679720309
1	1180	551.825263959894	0.933865928065
1	1186	553.482458805261	1.001666034205
1	1188	555.339321625676	2.775764044812
1	1192	555.634176030956	0.204488073368
1	1196	557.0749464056	0.820001525253
1	1200	557.512453262109	0.041035384054
1	1204	559.490699986617	0.597578848941
1	1208	560.239699945463	0.465087943493
1	1214	566.7925770321	1.235232134797
1	1216	567.572945436779	1.053987499627
1	1224	570.817471581203	1.720145949468
1	1226	573.411211964788	3.369543535789
1	1228	573.544531494924	3.042090105481
1	1232	575.14595020253	0.397501553129
1	1236	576.529727467166	1.202212077868
1	1240	581.533427838204	0.608540321221
1	1244	582.964013113023	0.365220160771
1	1248	584.616357623837	1.495864786185
1	1258	591.450294061381	5.178890637348
1	1262	593.028768548593	5.52941517164
1	1270	594.370534470569	5.725266369084
1	1272	594.597094427125	5.774872896391
1	1276	595.434314794251	3.481077439279
1	1278	595.548474741313	1.976353745735
1	1282	596.588285749326	2.758451415257
1	1284	598.529028990147	4.455716602082
1	1286	598.768834881224	3.87229389569
1	1288	599.534943365817	2.956804613149
1	1292	602.089059535511	0.023653832841
1	1296	607.688477433384	1.392076082579
1	1300	608.343532941203	0.364778531657
1	1304	610.244208081871	0.714706564924
1	1310	613.290300636728	1.634697170264
1	1312	613.922924732318	1.390152516578
1	1318	617.754161799212	2.606390485105
1	1320	617.948494909395	1.135950434314
1	1324	619.200688303207	0.225920748559
1	1328	620.005326357161	0.195347278098
1	1332	620.319901556401	0.032933565711
1	1336	623.161399562257	0.437489348465
1	1340	625.322305334435	0.298848768279
1	1344	628.119264856249	1.43686092806
1	1348	634.561438628791	0.008604355574
1	1356	636.595573891499	0.893954698272
1	1358	637.844435903234	2.083358512446
1	1360	637.911355283261	1.430737147612
1	1364	639.54246871232	1.219776978029
1	1370	641.122275225952	0.837927865285
1	1372	645.488668862994	4.625900059041
1	1376	647.297360550538	0.604181423856
1	1380	651.718732983462	0.603788696074
1	1384	652.578363833788	0.037623224062
1	1388	654.392986924585	0.034414073181
1	1392	656.36942859399	0.62434683049
1	1396	660.376049881386	1.886276940925
1	1400	662.592703448877	0.883649244258
1	1404	664.194974485443	0.283595654681
1	1412	670.238999318075	3.167266104565
1	1414	671.077133344592	3.691340109696
1	1416	671.671540053077	1.542838946705
1	1420	676.136162930301	0.595733271204
1	1424	681.767313208418	0.348227731457
1	1428	682.850077201661	0.008705568012
1	1432	683.907773312424	0.041204544441
1	1440	688.032823038301	1.903689077293
1	1442	692.167874186622	4.818625741981
1	1444	693.067037302325	5.680392355344
1	1450	701.559951308304	0.635381034859
1	1454	703.118235368449	1.809566654909
1	1456	703.781949570684	0.812534250814
1	1460	706.833601623787	0.437634092455
1	1464	709.12105085133	0.050800299792
1	1472	716.933521745712	4.811548455201
1	1474	717.179560811741	4.380519302703
1	1476	717.350420843134	1.892905588466
1	1480	722.194827587334	0.312189486766
1	1484	723.179264616767	0.425218312911
1	1488	726.602345326181	0.819050132919
1	1492	729.584193843796	0.094735741591
1	1496	731.248052543196	1.300666627198
1	1500	732.290824621137	0.011813959029
1	1504	739.540070274244	0.62346357246
1	1508	741.073433351768	0.363546116279
1	1514	742.96915371413	1.033019978437
1	1516	747.519752610222	5.244032502672
1	1520	748.78070677556	0.156364853982
1	1524	751.238559621997	0.977877183301
1	1528	752.052321155525	0.568617713433
1	1534	759.683347538501	4.630304853885
1	1540	761.689582445766	2.887562496301
1	1542	762.022353667223	1.453850273447
1	1544	763.101894447517	1.416661160778
1	1548	764.468695579509	0.302354338693
1	1552	766.362024118798	0.232498120698
1	1556	770.097859773085	0.59227574375
1	1560	773.334755680112	0.477144528426
1	1564	773.774378361783	0.353296273818
1	1570	774.411643711144	0.181226276172
1	1574	775.416515777545	1.153887416195
1	1576	775.764427139855	1.07483835468
1	1582	776.486143255648	0.669737244103
1	1584	776.728582657952	0.713801276912
1	1588	779.536620075964	1.221266793984
1	1592	780.323372883034	0.35940221938
1	1596	780.989814973582	0.303484052962
1	1602	783.556971787748	1.419168429188
1	1606	785.406666713193	2.095346044095
1	1612	786.327514707625	1.028680449744
1	1614	786.521862559721	0.972627807766
1	1618	786.780548535435	0.677867366783
1	1620	786.842557480714	0.28455119255
1	1624	787.823452179449	0.0629866809