version 3
run General-9-20221027-09:47:20-10452
attr configname General
attr datetime 20221027-09:47:20
attr datetimef 20221027-094720
attr experiment General
attr inifile simu_1.ini
attr iterationvars ""
attr iterationvarsd ""
attr iterationvarsf ""
attr measurement ""
attr network Rete
attr processid 10452
attr repetition 9
attr replication #9
attr resultdir results
attr runnumber 9
attr seedset 9
config network Rete
config record-eventlog false
config repeat 10
config sim-time-limit 1000s
config simtime-resolution ps
config **.Servente.serviceTime exponential(1s)
config **.Arrivi.interArrivalTime exponential(2s)

vector 0 Rete.Servente queueLength:vector ETV
attr interpolationmode sample-hold
attr recordingmode vector
attr title "queue length"
vector 1 Rete.Pozzo lifeTime:vector ETV
attr interpolationmode none
attr recordingmode vector
attr title "lifetime of arrived jobs"
attr unit s
0	0	0	0
0	12	2.325382645978	1
0	13	2.453912805329	0
0	20	3.112456448999	1
0	21	3.33224857005	0
0	44	11.03327809734	1
0	46	11.969931947422	2
0	47	12.382861871011	1
0	49	13.709597764875	0
0	64	27.587716990249	1
0	66	27.880098166392	2
0	67	29.579534518289	1
0	70	30.078717041409	2
0	72	31.666145598778	3
0	73	32.591541679675	2
0	76	33.276788141319	3
0	77	33.803638787875	2
0	79	34.29217658355	1
0	81	35.285216148754	0
0	88	40.681213429712	1
0	89	40.759223252572	0
0	100	46.559292015215	1
0	101	47.246928548617	0
0	104	50.154394435065	1
0	106	50.375046656908	2
0	108	50.7468295307	3
0	110	50.912106339965	4
0	111	51.342829349522	3
0	113	51.412897329764	2
0	116	52.384569446216	3
0	118	53.735104090872	4
0	119	54.322771519838	3
0	121	54.557819181841	2
0	124	55.83212415776	3
0	125	56.529892060015	2
0	127	60.065055442333	1
0	130	61.018626091498	2
0	132	61.429090157777	3
0	134	63.644177932504	4
0	135	64.008081637262	3
0	138	64.201267622892	4
0	139	64.879760899502	3
0	141	66.461182176508	2
0	144	68.33472638712	3
0	146	68.430377718026	4
0	147	68.828596842735	3
0	149	69.696717157757	2
0	151	70.122745172309	1
0	153	70.200178514709	0
0	160	71.61918506204	1
0	161	72.213299851303	0
0	164	72.760650319768	1
0	165	72.899037975192	0
0	172	74.864306875022	1
0	173	75.134206387682	0
0	188	93.456759682323	1
0	189	93.674834215796	0
0	192	94.139880460228	1
0	194	94.901676656277	2
0	196	94.982185165578	3
0	197	96.267772657974	2
0	199	97.30939057102	1
0	201	97.353187477918	0
0	208	104.024547621635	1
0	209	104.270948314753	0
0	224	108.501680497992	1
0	226	108.892397688919	2
0	228	109.247318988205	3
0	230	109.52206799948	4
0	231	109.536379999271	3
0	233	109.609042695306	2
0	236	109.820782671389	3
0	237	110.044323325473	2
0	239	110.706938302473	1
0	242	111.839639786033	2
0	243	112.74807494805	1
0	245	113.185412259198	0
0	248	114.232551280976	1
0	250	114.303354201159	2
0	251	114.800649144162	1
0	254	114.923957836304	2
0	255	116.311198108132	1
0	257	116.95878876635	0
0	264	119.876009126621	1
0	265	120.198443071962	0
0	276	127.818499040616	1
0	278	128.309475705776	2
0	279	128.396539437832	1
0	282	129.688342317047	2
0	283	129.704263214087	1
0	285	130.089565875124	0
0	296	132.42531960647	1
0	297	132.614754614278	0
0	316	142.386139712818	1
0	317	142.931983969039	0
0	320	143.208292078483	1
0	321	144.25912609737	0
0	324	144.918017338931	1
0	325	145.071544521847	0
0	328	145.207901824757	1
0	329	145.431984608321	0
0	332	145.52539681822	1
0	334	145.637190793316	2
0	336	146.146569166852	3
0	338	147.773925316554	4
0	340	148.072710711989	5
0	341	148.965509488129	4
0	343	149.919846047483	3
0	345	151.180505576456	2
0	347	151.85763952647	1
0	349	152.697544813998	0
0	364	167.480812396516	1
0	365	167.741444356787	0
0	376	170.872884708023	1
0	377	171.549557661621	0
0	384	174.281309039514	1
0	385	174.914013154652	0
0	392	178.778493313106	1
0	393	179.470110118183	0
0	396	180.573238951111	1
0	398	180.587863806593	2
0	399	180.889076555767	1
0	402	181.196227282573	2
0	404	181.408857199455	3
0	405	182.557280583138	2
0	407	185.048519731379	1
0	409	185.221713060113	0
0	424	199.647967146766	1
0	425	201.347986572635	0
0	460	219.911369898117	1
0	461	222.159510555629	0
0	472	225.902971734829	1
0	473	226.579082065637	0
0	476	227.592837040048	1
0	477	228.25611102452	0
0	484	231.47957082205	1
0	485	233.129918811917	0
0	488	234.486612318202	1
0	489	234.760762349798	0
0	504	243.36644348084	1
0	505	244.433672605135	0
0	508	246.505441527032	1
0	509	246.946101199269	0
0	516	249.540951320036	1
0	518	249.789612653719	2
0	520	250.527062443939	3
0	521	251.652292641504	2
0	523	252.066127626445	1
0	525	252.414267062764	0
0	532	256.975799597908	1
0	534	257.583631353695	2
0	535	257.814251605121	1
0	537	258.17112350067	0
0	540	260.16813894689	1
0	542	260.314878565366	2
0	543	260.414899680477	1
0	545	260.747893619646	0
0	564	277.735725190293	1
0	565	279.433904089423	0
0	580	289.71092378131	1
0	581	289.870046451957	0
0	588	291.905925057715	1
0	590	292.729694874114	2
0	592	292.896965749652	3
0	593	292.92679699954	2
0	596	293.355869796824	3
0	597	294.554341079601	2
0	600	294.577417562618	3
0	601	295.704679430178	2
0	603	296.324595553867	1
0	606	297.665766912218	2
0	607	297.684425193381	1
0	609	298.58384263667	0
0	616	301.264180755189	1
0	617	301.824773650799	0
0	628	305.762605824527	1
0	629	306.380250662481	0
0	632	306.913772612512	1
0	634	306.958837230434	2
0	635	307.498724375127	1
0	637	308.225050780681	0
0	640	308.25183949077	1
0	641	311.272311106522	0
0	648	314.88103954291	1
0	649	315.55784396285	0
0	664	324.016291550132	1
0	666	324.494803357982	2
0	667	324.887691639743	1
0	670	325.375877808525	2
0	671	325.603950551761	1
0	673	325.753980830243	0
0	692	338.565910597515	1
0	693	338.670454920511	0
0	700	344.508813259804	1
0	701	345.128493674623	0
0	708	348.645301079165	1
0	710	349.82228054096	2
0	711	350.010452938032	1
0	714	351.551336284488	2
0	716	351.943294169188	3
0	717	352.444654921319	2
0	719	353.340534603572	1
0	721	354.871587889494	0
0	728	356.354207683228	1
0	729	356.865175683715	0
0	736	358.875915979925	1
0	738	358.966373020246	2
0	740	360.249638770368	3
0	741	360.863082262014	2
0	743	361.445857227857	1
0	745	364.293949627288	0
0	752	367.04030205933	1
0	754	367.078403486005	2
0	755	367.516644089116	1
0	757	367.931942015079	0
0	764	372.766968023483	1
0	765	373.158174986986	0
0	776	382.169051373589	1
0	777	382.578872813634	0
0	784	384.861648185843	1
0	785	385.585409224343	0
0	800	398.402751332761	1
0	801	398.487167126126	0
0	808	400.889560402566	1
0	809	401.155692301675	0
0	812	402.499270909994	1
0	813	403.107341788254	0
0	824	407.738620607688	1
0	826	407.906335393011	2
0	827	408.079157743922	1
0	829	408.806708471832	0
0	832	408.863450745441	1
0	833	408.922538487194	0
0	836	409.493151766298	1
0	837	410.607910858778	0
0	840	410.827142735518	1
0	842	411.203847951883	2
0	844	411.608342734817	3
0	845	413.318245367886	2
0	847	413.691047608991	1
0	849	414.604673251885	0
0	864	420.282106428641	1
0	865	420.314001056921	0
0	884	429.006687599893	1
0	885	429.098907154468	0
0	896	432.773548457246	1
0	897	434.129143455129	0
0	904	436.510397506883	1
0	905	436.867998574945	0
0	912	437.742671427896	1
0	914	437.951825740122	2
0	915	438.861183973488	1
0	917	440.640678348216	0
0	924	442.781190830393	1
0	925	442.937573499866	0
0	940	451.184846865432	1
0	942	451.642418180521	2
0	944	451.652345590247	3
0	945	453.338170988507	2
0	947	453.656427487633	1
0	949	453.842058029648	0
0	968	466.963414311468	1
0	969	467.395375989573	0
0	980	471.416314131865	1
0	981	471.709242556184	0
0	984	472.468346957905	1
0	985	474.2514435741	0
0	1004	485.525117223236	1
0	1005	485.562591743727	0
0	1012	487.610947875061	1
0	1013	487.82905966862	0
0	1016	488.095974548714	1
0	1017	488.116583976297	0
0	1024	489.908402603362	1
0	1025	490.977701520932	0
0	1036	495.426541810119	1
0	1037	497.048666678168	0
0	1044	497.869310868447	1
0	1045	498.028141845036	0
0	1048	498.140086109524	1
0	1049	498.344122076778	0
0	1076	519.0556860822	1
0	1078	519.810523521305	2
0	1079	519.924878088642	1
0	1082	520.192924250121	2
0	1084	521.442100514254	3
0	1085	521.555129997249	2
0	1087	522.236267404239	1
0	1089	523.622894771414	0
0	1104	532.094705118294	1
0	1105	532.98891270231	0
0	1108	535.49283105357	1
0	1109	536.836201234954	0
0	1124	545.02212291335	1
0	1126	545.072804833589	2
0	1127	545.200230172798	1
0	1130	545.313319218019	2
0	1131	545.367188542465	1
0	1134	545.815892954814	2
0	1136	545.965905913586	3
0	1137	546.159310000742	2
0	1139	546.863119433938	1
0	1141	547.493590865366	0
0	1148	548.738383960726	1
0	1149	548.893200040404	0
0	1160	554.176969180436	1
0	1161	554.597970361007	0
0	1168	561.348149795409	1
0	1170	561.462198647822	2
0	1171	562.30364900275	1
0	1174	563.313678663971	2
0	1176	564.249130791393	3
0	1177	565.599538951592	2
0	1179	565.993403072403	1
0	1181	566.888988667567	0
0	1188	569.194569611005	1
0	1189	569.378603959392	0
0	1192	570.786152871602	1
0	1193	571.894268796007	0
0	1196	572.147689606134	1
0	1197	573.652607965299	0
0	1204	579.125737073988	1
0	1206	579.454910069503	2
0	1208	579.512186554054	3
0	1209	579.618570209933	2
0	1212	579.657350077424	3
0	1214	580.536848700585	4
0	1216	580.981857968255	5
0	1217	581.21569007053	4
0	1219	582.37354599097	3
0	1221	582.792829558859	2
0	1224	583.897558001074	3
0	1225	584.536883796173	2
0	1228	584.583557194376	3
0	1230	584.788624452468	4
0	1231	584.915166351055	3
0	1233	585.229013405466	2
0	1236	585.809433903831	3
0	1238	587.775164645572	4
0	1240	588.360057283845	5
0	1241	589.46876978313	4
0	1244	590.619909815053	5
0	1245	590.876652778965	4
0	1247	591.397629035933	3
0	1249	592.520992713057	2
0	1251	592.899664878075	1
0	1253	594.52241655011	0
0	1268	598.869655960138	1
0	1269	599.006931133865	0
0	1272	599.164419711013	1
0	1273	600.743276202211	0
0	1276	601.085621708711	1
0	1277	602.004786717979	0
0	1284	602.948467038062	1
0	1286	603.307925502478	2
0	1287	604.403754717854	1
0	1289	604.41758126107	0
0	1296	608.486059988107	1
0	1297	608.705618886844	0
0	1300	608.838924471855	1
0	1301	609.969111937117	0
0	1316	621.820149687928	1
0	1317	622.222978485499	0
0	1368	649.314472260842	1
0	1370	649.909320190698	2
0	1372	650.035012351241	3
0	1374	650.253461883624	4
0	1376	650.338910382341	5
0	1378	650.728593374057	6
0	1380	651.401536808037	7
0	1381	651.584157168741	6
0	1383	652.450809422749	5
0	1385	654.309446404119	4
0	1388	656.178413277737	5
0	1390	656.476251641007	6
0	1391	657.094292554607	5
0	1393	657.557556965661	4
0	1396	658.21929386376	5
0	1398	658.525296161819	6
0	1399	658.69694050886	5
0	1401	658.991880721526	4
0	1404	660.624818945561	5
0	1405	661.90151942743	4
0	1408	663.328495595868	5
0	1409	663.844394932966	4
0	1411	664.292258162946	3
0	1414	665.039815021624	4
0	1415	665.161972011727	3
0	1417	665.443678643439	2
0	1419	665.746429529542	1
0	1421	666.20881543977	0
0	1424	668.493701346858	1
0	1426	669.165468839248	2
0	1428	670.186431275522	3
0	1430	670.281417853881	4
0	1431	670.480064908763	3
0	1434	671.898310409299	4
0	1435	672.690204040241	3
0	1437	673.281256297613	2
0	1439	673.658135243373	1
0	1441	673.677019748556	0
0	1444	673.985313970924	1
0	1446	675.348089891663	2
0	1447	675.718675259504	1
0	1449	676.289965409669	0
0	1492	712.210188329625	1
0	1493	712.549712339981	0
0	1508	723.353963253542	1
0	1509	724.06611876092	0
0	1512	724.837990627477	1
0	1514	725.08318784126	2
0	1515	725.684176190249	1
0	1517	725.778709239868	0
0	1524	728.783126113926	1
0	1525	729.117374158671	0
0	1532	735.805967960812	1
0	1533	736.585386850879	0
0	1536	736.837867189803	1
0	1537	737.526316367439	0
0	1560	759.420254865391	1
0	1561	760.201063276243	0
0	1572	769.308043642737	1
0	1573	770.490876580897	0
0	1576	770.668035781014	1
0	1578	771.173437007165	2
0	1580	771.232768741076	3
0	1581	772.189597522382	2
0	1583	772.741872167221	1
0	1585	773.158671932259	0
0	1592	774.770710707504	1
0	1593	776.572904570991	0
0	1600	777.804630198904	1
0	1601	777.969722033444	0
0	1604	779.926927094054	1
0	1606	780.916699726791	2
0	1608	780.990868422403	3
0	1609	781.950885126606	2
0	1611	783.061836650351	1
0	1614	785.305111760833	2
0	1615	785.601189007704	1
0	1617	786.347455193311	0
0	1636	801.629067926318	1
0	1637	804.105498355185	0
0	1640	804.225104741105	1
0	1641	805.365141134873	0
0	1648	810.586784544363	1
0	1649	812.237515597715	0
0	1652	812.431551843275	1
0	1654	812.439818023451	2
0	1655	812.57748021908	1
0	1658	813.477599392916	2
0	1659	813.938151090792	1
0	1661	814.184358689614	0
0	1668	815.446107248639	1
0	1669	816.177879664741	0
0	1672	818.133453173478	1
0	1673	819.007028445368	0
0	1712	844.960273710959	1
0	1714	846.27994369257	2
0	1715	846.391380830254	1
0	1717	847.208808666424	0
0	1724	849.190806216589	1
0	1725	849.796307871178	0
0	1740	872.278832521862	1
0	1741	873.221609084409	0
0	1744	873.414079317343	1
0	1746	873.427239527292	2
0	1748	873.534030672462	3
0	1749	873.80951634041	2
0	1751	874.32973625499	1
0	1753	875.661388509994	0
0	1760	879.219907069303	1
0	1761	879.412683217308	0
0	1764	879.856192939592	1
0	1765	882.1815643788	0
0	1776	887.520529726264	1
0	1777	887.732011321206	0
0	1784	891.849893211429	1
0	1785	891.983685505022	0
0	1800	901.510680370555	1
0	1802	902.148474497698	2
0	1803	902.367693381134	1
0	1805	902.901863355869	0
0	1820	909.30535484831	1
0	1821	909.503685371912	0
0	1828	912.873571784066	1
0	1829	913.98569593002	0
0	1832	914.957123640005	1
0	1834	915.948083747901	2
0	1835	916.2650221454	1
0	1838	916.636477010379	2
0	1840	916.878951758462	3
0	1841	917.265160339463	2
0	1844	917.751728392839	3
0	1845	918.983898444464	2
0	1847	919.725567485149	1
0	1849	920.011505272434	0
0	1864	947.904868821083	1
0	1865	948.214676458525	0
0	1868	948.347682193799	1
0	1870	948.625472763619	2
0	1871	949.041936218128	1
0	1873	950.518565989734	0
0	1892	957.04114190734	1
0	1894	957.26210717153	2
0	1896	958.404339784881	3
0	1897	958.599362641547	2
0	1900	960.126090640794	3
0	1901	960.473913782045	2
0	1903	963.433347007418	1
0	1905	964.037416490262	0
0	1908	964.447824652898	1
0	1909	964.455501174234	0
0	1912	964.657074324776	1
0	1913	964.913648135776	0
0	1916	964.976442314199	1
0	1917	965.5640142363	0
0	1920	965.565131058532	1
0	1922	966.17402734128	2
0	1924	966.20800109335	3
0	1926	966.261001481405	4
0	1927	966.9454994392	3
0	1929	967.172611645797	2
0	1932	967.382858298657	3
0	1933	968.795519494343	2
0	1935	968.955793764295	1
0	1938	969.965898103644	2
0	1939	970.096245682651	1
0	1941	970.217496993663	0
0	1956	977.612236182124	1
0	1958	977.712984195931	2
0	1959	979.153276487571	1
0	1961	980.676570234639	0
1	4	0.717760106863	0.696903417222
1	8	1.612149721301	0.684729306884
1	14	2.453912805329	0.143673545553
1	16	2.607193471187	0.281810825209
1	22	3.33224857005	0.246615210906
1	24	3.874406954167	0.761950505168
1	28	7.592351932	0.285153503225
1	32	7.690904920668	0.087804040669
1	36	8.32540594658	0.423881619763
1	40	9.091961739007	0.182453186575
1	48	12.382861871011	2.108327412222
1	50	13.709597764875	2.676319667535
1	52	13.749116831708	1.779184884286
1	56	19.20133612171	1.201001861151
1	60	25.728795819681	0.850408945069
1	68	29.579534518289	2.282852308638
1	74	32.591541679675	5.003824689426
1	78	33.803638787875	5.923540621483
1	80	34.29217658355	4.213459542141
1	82	35.285216148754	3.619070549976
1	84	36.470820931855	3.194032790536
1	90	40.759223252572	1.742229356787
1	92	41.38596204584	0.704748616128
1	96	45.544308022384	2.8221893417
1	102	47.246928548617	1.628313801457
1	112	51.342829349522	4.783537334307
1	114	51.412897329764	1.258502894699
1	120	54.322771519838	3.94772486293
1	122	54.557819181841	3.810989651141
1	126	56.529892060015	5.61778572005
1	128	60.065055442333	7.680485996117
1	136	64.008081637262	10.27297754639
1	140	64.879760899502	9.047636741742
1	142	66.461182176508	5.44255608501
1	148	68.828596842735	7.399506684958
1	150	69.696717157757	6.052539225253
1	152	70.122745172309	5.921477549417
1	154	70.200178514709	1.865452127589
1	156	70.822931946444	2.392554228418
1	162	72.213299851303	0.942988323612
1	166	72.899037975192	1.279852913152
1	168	73.549075886605	0.788425566837
1	174	75.134206387682	0.571913143446
1	176	77.177572867519	2.313265992497
1	180	79.655517387297	0.207465401976
1	184	88.311690529833	1.16370806358
1	190	93.674834215796	1.215806470111
1	198	96.267772657974	2.811012975651
1	200	97.30939057102	3.169510110792
1	202	97.353187477918	2.451510821641
1	204	98.369447700402	3.387262534824
1	210	104.270948314753	0.619334907989
1	212	104.325467253035	0.3009196314
1	216	104.72013434951	0.039334476672
1	220	105.899638941611	0.185765179198
1	232	109.536379999271	1.582542313957
1	234	109.609042695306	1.107362197314
1	238	110.044323325473	1.151925636554
1	240	110.706938302473	1.459619314268
1	244	112.74807494805	3.22600694857
1	246	113.185412259198	3.364629587809
1	252	114.800649144162	2.961009358129
1	256	116.311198108132	2.078646827156
1	258	116.95878876635	2.655434565191
1	260	116.98192122623	2.057963389926
1	266	120.198443071962	0.470200058135
1	268	120.421128385096	0.545119258475
1	272	124.967372801793	0.419774857321
1	280	128.396539437832	0.58718898135
1	284	129.704263214087	1.885764173471
1	286	130.089565875124	1.780090169348
1	288	130.330690066775	0.642347749728
1	292	131.002558207449	0.244162557711
1	298	132.614754614278	0.264365530131
1	300	133.920707065078	1.495387458608
1	304	136.362109501268	0.537715035197
1	308	138.160622334803	0.876825277699
1	312	139.431595351262	0.681884068601
1	318	142.931983969039	0.562201048132
1	322	144.25912609737	1.872986384552
1	326	145.071544521847	1.863252443364
1	330	145.431984608321	0.51396726939
1	342	148.965509488129	3.757607663372
1	344	149.919846047483	4.394449229263
1	346	151.180505576456	5.54331478314
1	348	151.85763952647	5.711070359618
1	350	152.697544813998	4.923619497444
1	352	152.899847953191	4.827137241202
1	356	154.778449901393	0.115759412097
1	360	158.539921860218	0.77560644649
1	366	167.741444356787	0.341503867585
1	368	167.85020402818	0.369391631664
1	372	168.816342652572	0.674524753927
1	378	171.549557661621	0.99992151515
1	380	171.588266496506	0.715381788483
1	386	174.914013154652	0.693363039725
1	388	175.001253758684	0.71994471917
1	394	179.470110118183	1.566944822795
1	400	180.889076555767	2.110583242661
1	406	182.557280583138	1.984041632027
1	408	185.048519731379	4.460655924786
1	410	185.221713060113	4.02548577754
1	412	185.950405006574	4.541547807119
1	416	187.158153407567	0.143338952925
1	420	195.013319583692	0.119395340323
1	426	201.347986572635	1.842891605153
1	428	202.137809290385	2.489842143619
1	432	202.579870189658	0.302479791233
1	436	204.350084205138	0.85761038491
1	440	206.726574436555	0.376662814774
1	444	210.509074914148	1.568407227322
1	448	212.926976620313	0.679423220176
1	452	216.509584361229	3.356936899133
1	456	218.98764041612	0.734619271525
1	462	222.159510555629	2.333266898654
1	464	222.446932079522	2.535562181405
1	468	224.932413699065	0.737072534572
1	474	226.579082065637	0.704705081309
1	478	228.25611102452	2.353139289691
1	480	228.332122278933	0.739285238885
1	486	233.129918811917	1.809151814114
1	490	234.760762349798	3.281191527748
1	492	235.282179313411	0.795566995209
1	496	237.354638552766	0.037132195227
1	500	242.117633948505	1.457808022241
1	506	244.433672605135	1.136088529258
1	510	246.946101199269	3.579657718429
1	512	247.767503713202	1.26206218617
1	522	251.652292641504	3.433275384481
1	524	252.066127626445	2.525176306409
1	526	252.414267062764	2.624654409045
1	528	253.72687169996	3.199809256021
1	536	257.814251605121	1.208549628031
1	538	258.17112350067	1.195323902762
1	544	260.414899680477	2.831268326782
1	546	260.747893619646	0.579754672756
1	548	261.894078033475	1.579199468109
1	552	264.689270905416	1.852253962665
1	556	270.377433755067	1.035972753015
1	560	277.406615039423	0.36053795254
1	566	279.433904089423	1.764813003406
1	568	279.714570226569	1.978845036276
1	572	286.333852804561	1.216655199328
1	576	288.203510158264	0.767629898149
1	582	289.870046451957	0.479342327965
1	584	290.066813363108	0.355889581798
1	594	292.92679699954	2.170080799442
1	598	294.554341079601	2.648416021886
1	602	295.704679430178	2.974984556064
1	604	296.324595553867	3.427629804215
1	608	297.684425193381	4.328555396557
1	610	298.58384263667	4.006425074052
1	612	298.916056718921	1.250289806703
1	618	301.824773650799	1.977424974558
1	620	302.021372102738	0.757191347549
1	624	305.291611140152	0.866812192716
1	630	306.380250662481	0.622939227755
1	636	307.498724375127	1.7361185506
1	638	308.225050780681	1.311278168169
1	642	311.272311106522	4.313473876088
1	644	313.191387910366	4.939548419596
1	650	315.55784396285	2.287766475613
1	652	315.583745634444	0.702706091534
1	656	315.929088158301	0.170103978563
1	660	322.666235961615	0.647979101451
1	668	324.887691639743	1.32697636379
1	672	325.603950551761	1.587659001629
1	674	325.753980830243	1.259177472261
1	676	325.800516505724	0.424638697199
1	680	328.061063717313	1.022877847378
1	684	330.840288480465	1.143211334642
1	688	336.400020873378	0.503581061004
1	694	338.670454920511	0.146961754218
1	696	339.209093351116	0.643182753601
1	702	345.128493674623	1.341178875516
1	704	346.006303472374	1.49749021257
1	712	350.010452938032	2.149290999057
1	718	352.444654921319	3.799353842154
1	720	353.340534603572	3.518254062612
1	722	354.871587889494	3.320251605006
1	724	354.926971370773	2.983677201585
1	730	356.865175683715	1.360288009252
1	732	357.089617160421	0.735409477193
1	742	360.863082262014	2.350466806432
1	744	361.445857227857	2.569941247932
1	746	364.293949627288	5.327576607042
1	748	364.440224391902	4.190585621534
1	756	367.516644089116	1.648675762535
1	758	367.931942015079	0.891639955749
1	760	369.118037226114	2.039633740109
1	766	373.158174986986	1.101249136982
1	768	374.384453930636	1.617485907153
1	772	376.046880123839	1.365761022643
1	778	382.578872813634	1.253846609653
1	780	382.733146445107	0.564095071518
1	786	385.585409224343	1.097686556338
1	788	387.997333728683	3.13568554284
1	792	388.074896919717	0.032962299786
1	796	396.515247449905	0.20433942938
1	802	398.487167126126	1.436965040439
1	804	398.529935548101	0.12718421534
1	810	401.155692301675	0.327097379604
1	814	403.107341788254	2.217781385688
1	816	403.567854593011	1.068583683017
1	820	405.994687163151	2.292554341742
1	828	408.079157743922	0.341220459087
1	830	408.806708471832	1.068087864144
1	834	408.922538487194	1.016203094183
1	838	410.607910858778	1.744460113337
1	846	413.318245367886	3.825093601588
1	848	413.691047608991	2.863904873473
1	850	414.604673251885	3.400825300002
1	852	415.727693123728	4.119350388911
1	856	416.785275798725	0.082404961178
1	860	419.595230255574	0.033271399945
1	866	420.314001056921	0.395379560425
1	868	420.80275896816	0.520652539519
1	872	422.794222817379	0.796215529962
1	876	423.628888207562	0.805042713032
1	880	426.498707663308	0.400667400082
1	886	429.098907154468	0.554518227193
1	888	429.389068111089	0.382380511196
1	892	431.825403512286	0.22644290963
1	898	434.129143455129	1.502942826994
1	900	434.279493028151	1.505944570905
1	906	436.867998574945	0.600027959707
1	908	436.998702683617	0.488305176734
1	916	438.861183973488	1.694374561139
1	918	440.640678348216	2.89800692032
1	920	440.762591846547	2.810766106425
1	926	442.937573499866	1.276477919167
1	928	445.505629011807	2.724438181414
1	932	448.648687972597	0.487810730643
1	936	450.156904410808	1.501089492981
1	946	453.338170988507	2.575519222858
1	948	453.656427487633	2.471580622201
1	950	453.842058029648	2.199639849127
1	952	453.87926066358	2.226915073333
1	956	459.069776018743	0.222133749452
1	960	461.147459177106	0.011271126468
1	964	464.177840592932	0.050135582884
1	970	467.395375989573	1.047945629175
1	972	467.736070075188	0.77265576372
1	976	469.657016978076	1.860532442947
1	982	471.709242556184	0.405410409188
1	986	474.2514435741	2.835129442235
1	988	474.392300815305	1.9239538574
1	992	475.341906656104	0.796298998994
1	996	481.668746206782	0.348755667299
1	1000	483.371962888538	1.640687133942
1	1006	485.562591743727	0.412001328451
1	1008	485.691595579608	0.166478356372
1	1014	487.82905966862	0.608066489291
1	1018	488.116583976297	0.505636101236
1	1020	489.483990275624	1.38801572691
1	1026	490.977701520932	1.331503350603
1	1028	490.987958805148	1.079556201786
1	1032	492.294860190798	0.002996454587
1	1038	497.048666678168	2.501114258128
1	1040	497.438566156117	2.012024345998
1	1046	498.028141845036	0.351515484844
1	1050	498.344122076778	0.474811208331
1	1052	498.626118929247	0.486032819723
1	1056	507.972957018698	1.493297615766
1	1060	508.286774846854	0.305491022937
1	1064	509.879050829055	1.269354736581
1	1068	512.139485764467	1.118678599099
1	1072	516.325865868693	0.799694611503
1	1080	519.924878088642	1.148137757016
1	1086	521.555129997249	2.499443915049
1	1088	522.236267404239	2.425743882934
1	1090	523.622894771414	3.429970521293
1	1092	523.650688743057	2.208588228803
1	1096	526.768479683551	0.246205359748
1	1100	529.541755733387	2.709183217119
1	1106	532.98891270231	1.074830190338
1	1110	536.836201234954	4.74149611666
1	1112	537.297148458632	1.804317405062
1	1116	541.967075926145	1.437126214009
1	1120	543.365478445254	0.915453978702
1	1128	545.200230172798	0.921535444972
1	1132	545.367188542465	0.345065629115
1	1138	546.159310000742	1.086505167153
1	1140	546.863119433938	1.549800215919
1	1142	547.493590865366	1.677697910552
1	1144	547.916862331857	1.950956418271
1	1150	548.893200040404	0.219052615292
1	1152	549.362719257114	0.624335296388
1	1156	552.977272028137	0.747406385295
1	1162	554.597970361007	1.240729906776
1	1164	555.489498571847	1.312529391411
1	1172	562.30364900275	1.019129417623
1	1178	565.599538951592	4.251389156183
1	1180	565.993403072403	4.531204424581
1	1182	566.888988667567	3.575310003596
1	1184	567.712568251191	3.463437459798
1	1190	569.378603959392	1.384949272207
1	1194	571.894268796007	2.699699185002
1	1198	573.652607965299	2.866455093697
1	1200	574.459433185311	2.311743579177
1	1210	579.618570209933	1.741952237848
1	1218	581.21569007053	2.089952996542
1	1220	582.37354599097	2.918635921467
1	1222	582.792829558859	3.280643004805
1	1226	584.536883796173	4.879533718749
1	1232	584.915166351055	4.37831765047
1	1234	585.229013405466	4.247155437211
1	1242	589.46876978313	5.571211782056
1	1246	590.876652778965	6.293095584589
1	1248	591.397629035933	6.609004583465
1	1250	592.520992713057	6.711558809226
1	1252	592.899664878075	5.124500232503
1	1254	594.52241655011	6.162359266265
1	1256	595.994338165677	5.374428350624
1	1260	596.617488904226	0.597583535258
1	1264	598.464888916447	1.238170843008
1	1270	599.006931133865	0.251286426863
1	1274	600.743276202211	1.873620242073
1	1278	602.004786717979	2.840367006966
1	1280	602.696417696837	1.610795988126
1	1288	604.403754717854	1.56806094557
1	1290	604.41758126107	1.469114223008
1	1292	605.965871982251	2.657946479773
1	1298	608.705618886844	0.353589475885
1	1302	609.969111937117	1.48305194901
1	1304	610.923771418399	2.084846946544
1	1308	612.808887879933	1.840884704861
1	1312	620.43204199303	0.518468050486
1	1318	622.222978485499	0.603967297072
1	1320	622.321434652467	0.501284964539
1	1324	622.918081926264	0.246723962704
1	1328	624.805246520227	0.753624604494
1	1332	627.049039684637	0.752613419218
1	1336	628.884622011511	1.248539465034
1	1340	631.722188249217	0.337422231951
1	1344	638.67679169808	0.123379472974
1	1348	639.245700629714	0.20733370701
1	1352	640.827643570259	0.568665048877
1	1356	641.474453354329	0.205232873889
1	1360	642.215954937487	0.131779517464
1	1364	645.848247229106	1.291076685737
1	1382	651.584157168741	2.409811329728
1	1384	652.450809422749	3.136337161907
1	1386	654.309446404119	4.400126213421
1	1392	657.094292554607	7.059280203366
1	1394	657.557556965661	7.304095082037
1	1400	658.69694050886	8.358030126519
1	1402	658.991880721526	8.263287347469
1	1406	661.90151942743	10.499982619393
1	1410	663.844394932966	7.665981655229
1	1412	664.292258162946	7.816006521939
1	1416	665.161972011727	6.942678147967
1	1418	665.443678643439	6.91838248162
1	1420	665.746429529542	5.121610583981
1	1422	666.20881543977	2.880319843902
1	1432	670.480064908763	5.440249887139
1	1436	672.690204040241	4.196502693383
1	1438	673.281256297613	4.115787458365
1	1440	673.658135243373	3.471703967851
1	1442	673.677019748556	3.395601894675
1	1448	675.718675259504	3.820364850205
1	1450	676.289965409669	2.304651438745
1	1452	677.132793121201	1.784703229538
1	1456	684.769324794625	0.252020120379
1	1460	685.380225895845	0.336595913895
1	1464	688.229424540958	1.704423464117
1	1468	696.429602019061	0.823313318356
1	1472	698.651891166829	0.78174344558
1	1476	704.858969079542	0.162002007514
1	1480	706.610765857779	1.348015835187
1	1484	707.84332679841	0.170213758551
1	1488	710.454862517616	0.206713999104
1	1494	712.549712339981	0.882165432923
1	1496	713.51505508749	1.304866757865
1	1500	713.829511321	0.21045545849
1	1504	720.67493832618	2.735693548626
1	1510	724.06611876092	1.23141008342
1	1516	725.684176190249	2.330212936707
1	1518	725.778709239868	0.940718612391
1	1520	726.519588393335	1.436400552075
1	1526	729.117374158671	0.999052742014
1	1528	729.136291816384	0.353165702458
1	1534	736.585386850879	0.874700964107
1	1538	737.526316367439	1.720348406627
1	1540	738.62832189436	1.790454704557
1	1544	741.035774886289	0.227678854377
1	1548	741.560354052641	0.386830037519
1	1552	750.447251752868	3.629948606578
1	1556	751.013210201975	0.319942126359
1	1562	760.201063276243	1.20391050296
1	1564	760.5093634271	1.089108561709
1	1568	766.125072615573	0.850262981585
1	1574	770.490876580897	2.056837157458
1	1582	772.189597522382	2.881553879645
1	1584	772.741872167221	2.073836386207
1	1586	773.158671932259	1.985234925094
1	1588	773.658904079232	2.426135338156
1	1594	776.572904570991	2.305846709545
1	1596	776.609367325484	1.83865661798
1	1602	777.969722033444	0.606591414617
1	1610	781.950885126606	4.146254927702
1	1612	783.061836650351	3.134909556297
1	1616	785.601189007704	4.684489280913
1	1618	786.347455193311	5.356586770908
1	1620	786.458260500641	1.153148739808
1	1624	788.261773794428	0.302751058807
1	1628	790.437286691876	0.64459055124
1	1632	800.148511313617	0.224513339923
1	1638	804.105498355185	2.698342506669
1	1642	805.365141134873	3.736073208555
1	1644	805.471714941202	1.246610200097
1	1650	812.237515597715	2.070295599665
1	1656	812.57748021908	1.990695674717