version 3
run General-5-20221103-09:44:57-15908
attr configname General
attr datetime 20221103-09:44:57
attr datetimef 20221103-094457
attr experiment General
attr inifile simu_1.ini
attr iterationvars ""
attr iterationvarsd ""
attr iterationvarsf ""
attr measurement ""
attr network Rete
attr processid 15908
attr repetition 5
attr replication #5
attr resultdir results
attr runnumber 5
attr seedset 5
config network Rete
config record-eventlog true
config repeat 30
config sim-time-limit 1000s
config simtime-resolution ps
config **.Servente.serviceTime exponential(1s)
config **.Arrivi.interArrivalTime exponential(2s)

vector 0 Rete.Servente queueLength:vector ETV
attr interpolationmode sample-hold
attr recordingmode vector
attr title "queue length"
vector 1 Rete.Pozzo lifeTime:vector ETV
attr interpolationmode none
attr recordingmode vector
attr title "lifetime of arrived jobs"
attr unit s
0	0	0	0
0	4	0.615561902627	1
0	5	2.547909813336	0
0	12	5.079444791273	1
0	13	6.683672537138	0
0	20	13.036974742758	1
0	21	13.794836683353	0
0	24	14.047777487696	1
0	26	14.922116460785	2
0	27	15.246877164345	1
0	29	15.91365119082	0
0	60	38.270561630963	1
0	61	38.35579314785	0
0	64	38.727262673799	1
0	65	38.890629784164	0
0	68	38.98087447166	1
0	69	39.24172025488	0
0	88	48.687099789248	1
0	90	48.883126125434	2
0	91	48.992757109547	1
0	94	49.468081768236	2
0	96	50.261778272821	3
0	97	50.744647531415	2
0	99	50.900324386013	1
0	101	53.129761431317	0
0	112	61.836073490533	1
0	114	62.02590113538	2
0	116	62.443432577093	3
0	117	63.412585310927	2
0	119	63.437192151368	1
0	121	64.086134374095	0
0	160	94.933193549563	1
0	161	95.221576779116	0
0	172	100.128407304447	1
0	173	102.243409925529	0
0	184	105.961196737387	1
0	186	106.09455974954	2
0	188	107.112696773239	3
0	190	107.502893141486	4
0	191	108.215818037463	3
0	193	108.633649923658	2
0	195	109.424314009271	1
0	197	110.362601362526	0
0	200	110.864035818819	1
0	202	111.299042183821	2
0	203	111.835997684833	1
0	205	111.965592230101	0
0	224	120.242394183192	1
0	226	120.886510878469	2
0	228	122.884584502415	3
0	230	123.396921293375	4
0	231	123.46392246575	3
0	233	126.329566107489	2
0	236	126.789749297674	3
0	237	127.164465809319	2
0	240	127.737048669526	3
0	241	128.173300109084	2
0	244	128.705749128049	3
0	246	129.424827106197	4
0	247	129.844094384344	3
0	249	130.061170110537	2
0	251	132.498736391776	1
0	253	133.831735104197	0
0	256	134.650742308174	1
0	257	135.573623363475	0
0	276	145.458267695441	1
0	278	145.799918150512	2
0	280	145.90491208942	3
0	281	146.5645126735	2
0	283	146.773590279305	1
0	285	148.638276831708	0
0	296	151.870585382174	1
0	298	152.259509155761	2
0	300	153.127531359715	3
0	301	153.167460658789	2
0	304	153.895529457104	3
0	305	154.185999204299	2
0	307	154.866062461317	1
0	309	155.123002204028	0
0	348	189.698175180878	1
0	350	189.769755998434	2
0	352	190.698634662109	3
0	354	191.029948515035	4
0	356	191.054841612076	5
0	358	191.831163545562	6
0	359	192.012117932195	5
0	361	192.137123303142	4
0	363	192.254905932684	3
0	365	192.700700766048	2
0	367	193.351438179365	1
0	369	194.547437362332	0
0	372	195.759206397304	1
0	373	196.444424228794	0
0	396	210.018210381755	1
0	397	210.438406790556	0
0	400	210.583819377197	1
0	402	213.404391338204	2
0	403	214.647273301592	1
0	405	215.634782804462	0
0	432	233.581689137083	1
0	433	234.418994003849	0
0	436	236.627428806899	1
0	437	237.490107513095	0
0	444	240.72557278689	1
0	445	242.462277304751	0
0	468	255.962016933825	1
0	470	256.222958804684	2
0	471	259.044886128878	1
0	474	259.161725381018	2
0	475	259.974541715126	1
0	478	262.008464771635	2
0	479	264.084807420402	1
0	482	264.484551729804	2
0	483	266.433197171506	1
0	485	266.7357034859	0
0	488	266.902876429105	1
0	489	268.193843546107	0
0	492	268.719179351522	1
0	494	269.532155930437	2
0	496	270.468053860003	3
0	498	271.647443357237	4
0	500	271.820857711967	5
0	501	271.857034876618	4
0	503	272.130998730589	3
0	505	272.549053817893	2
0	507	272.799417961345	1
0	510	273.891713003779	2
0	511	274.658215029717	1
0	514	274.795568328696	2
0	515	275.64790684668	1
0	517	275.871281042412	0
0	528	280.562149842652	1
0	529	280.757082413429	0
0	548	288.893370476436	1
0	550	289.108515269377	2
0	552	289.481777114065	3
0	554	290.324879331951	4
0	555	290.340565071623	3
0	558	290.759561728529	4
0	559	292.055370487608	3
0	562	294.130494168927	4
0	563	294.64092551494	3
0	565	296.060372492196	2
0	567	296.950444634142	1
0	570	297.454964427628	2
0	571	299.063083839411	1
0	573	300.988226274894	0
0	580	302.752671098878	1
0	582	304.510262737956	2
0	583	305.731242605715	1
0	585	306.163093106457	0
0	588	306.202743915514	1
0	589	306.523371834937	0
0	596	308.945341131142	1
0	598	309.325149985271	2
0	599	309.963640846368	1
0	601	310.107382983541	0
0	636	348.877995743024	1
0	637	349.390724738903	0
0	644	352.614783062567	1
0	646	352.881474156925	2
0	647	352.956857829947	1
0	649	354.24267334828	0
0	652	354.885746325811	1
0	653	354.991711390804	0
0	656	355.351576419418	1
0	658	356.251850660313	2
0	659	358.241333686724	1
0	662	359.36374077492	2
0	664	360.736860661752	3
0	665	361.137379258155	2
0	667	361.374546943073	1
0	669	361.932587479399	0
0	676	363.811280131117	1
0	677	364.828910996165	0
0	680	365.31463893929	1
0	682	365.545853529035	2
0	683	366.238940153608	1
0	685	367.455041484921	0
0	716	395.560702419364	1
0	717	395.708850683183	0
0	720	395.769487718699	1
0	721	395.853141153886	0
0	732	396.984569657463	1
0	733	397.133971547402	0
0	740	399.070598558032	1
0	741	399.208699978873	0
0	744	401.459784650965	1
0	746	402.569393183443	2
0	748	404.215515839472	3
0	749	405.095973358289	2
0	751	405.891654386912	1
0	753	406.522628879127	0
0	764	412.041256752431	1
0	766	412.356461545616	2
0	767	412.87202891646	1
0	769	413.917682609927	0
0	772	414.132354383938	1
0	773	414.846563048199	0
0	776	415.11066112512	1
0	777	415.284735451383	0
0	780	416.351620967368	1
0	782	416.57828848175	2
0	783	416.787033424416	1
0	785	416.982636426067	0
0	828	436.801785444764	1
0	829	437.345063376679	0
0	832	438.123591021933	1
0	833	438.325238087548	0
0	836	438.426134933664	1
0	837	438.49921170985	0
0	840	438.583016402335	1
0	841	440.74129127294	0
0	844	440.913093815796	1
0	845	442.052816869823	0
0	868	456.902065475992	1
0	870	456.958274354778	2
0	872	459.900492336635	3
0	873	460.439956660504	2
0	875	460.64021558694	1
0	877	461.46736578504	0
0	888	470.128676122406	1
0	889	471.416455790783	0
0	892	472.610164918714	1
0	893	472.799494092694	0
0	916	487.990078647008	1
0	917	488.468793697188	0
0	924	490.629813274827	1
0	926	491.256574163198	2
0	928	491.607979067237	3
0	929	492.020807995672	2
0	931	493.36500401442	1
0	933	493.426478662229	0
0	940	495.607021484472	1
0	941	496.247201199524	0
0	948	499.414911153925	1
0	949	500.542409471877	0
0	952	500.785846170049	1
0	953	501.020087893401	0
0	980	535.050859357689	1
0	982	535.090519410357	2
0	983	535.100538833287	1
0	985	535.3827357588	0
0	992	536.306114367499	1
0	993	536.47056814951	0
0	996	536.685242842816	1
0	997	538.312838515004	0
0	1012	549.911021413258	1
0	1014	550.604471743496	2
0	1015	550.736186304537	1
0	1017	552.241793137355	0
0	1020	552.613166918697	1
0	1022	553.946399801005	2
0	1023	554.439374695438	1
0	1025	555.952286263847	0
0	1036	568.051579489895	1
0	1038	568.393158638876	2
0	1039	568.666421517471	1
0	1041	569.280956942147	0
0	1044	570.851919171157	1
0	1045	570.919281116718	0
0	1052	577.729034468631	1
0	1054	578.158372312848	2
0	1055	578.724910954131	1
0	1057	579.276378120494	0
0	1072	591.747376051858	1
0	1073	592.064311234197	0
0	1076	592.16486198113	1
0	1077	596.67505163795	0
0	1084	600.619374454905	1
0	1085	600.831651841282	0
0	1104	612.831588190531	1
0	1106	612.947505917798	2
0	1108	613.338341520933	3
0	1110	613.400807232624	4
0	1111	613.427229284402	3
0	1114	613.697657268815	4
0	1115	613.963017114125	3
0	1117	614.03498844227	2
0	1120	614.176825610721	3
0	1122	614.536379766077	4
0	1123	615.140363866919	3
0	1125	615.310409464615	2
0	1128	615.464915827014	3
0	1129	615.541714585146	2
0	1131	615.943244050983	1
0	1134	616.312077668975	2
0	1136	616.482386555454	3
0	1137	616.959835691948	2
0	1140	617.520754469262	3
0	1141	617.533486738527	2
0	1144	617.912626889054	3
0	1146	618.107617006626	4
0	1147	619.200638419429	3
0	1150	619.288049087421	4
0	1151	619.558088952584	3
0	1153	620.426317058737	2
0	1155	620.454231527817	1
0	1158	620.473965672485	2
0	1160	621.128136030614	3
0	1162	621.866058548566	4
0	1164	622.022350313064	5
0	1165	622.187575019248	4
0	1167	622.236490483455	3
0	1169	622.959261100837	2
0	1172	624.48031217526	3
0	1173	624.951318939619	2
0	1176	625.71705425904	3
0	1178	625.803147086478	4
0	1179	626.204193493187	3
0	1181	626.698561673533	2
0	1183	626.841169333414	1
0	1185	626.871689911688	0
0	1192	631.565288693153	1
0	1193	631.796567575278	0
0	1200	634.11649844897	1
0	1202	634.749133630204	2
0	1203	636.568054391274	1
0	1205	639.565675669695	0
0	1212	641.807306357692	1
0	1213	641.823759599503	0
0	1224	644.432522435771	1
0	1225	644.438952366626	0
0	1228	644.639773297243	1
0	1229	644.878731903736	0
0	1244	651.558783375986	1
0	1246	653.682540260046	2
0	1248	653.760732906339	3
0	1250	656.55919371661	4
0	1251	657.594443497267	3
0	1253	659.246214008509	2
0	1255	660.032145422413	1
0	1257	660.223367979306	0
0	1268	661.978651847681	1
0	1269	662.708225077877	0
0	1284	665.53819962793	1
0	1285	668.400636466909	0
0	1296	672.310697074281	1
0	1298	672.482570267567	2
0	1299	673.647996412871	1
0	1301	673.740375679499	0
0	1320	692.644959019901	1
0	1321	694.068842533207	0
0	1324	694.5812132361	1
0	1325	695.347139270316	0
0	1336	701.334181843833	1
0	1337	702.294747311644	0
0	1340	702.378403221915	1
0	1342	702.579367184798	2
0	1343	702.914015120843	1
0	1346	703.905071097611	2
0	1348	704.109992201705	3
0	1350	705.523185848816	4
0	1351	705.830921980477	3
0	1354	706.449997586131	4
0	1355	708.273052848392	3
0	1357	708.93908004412	2
0	1359	709.187890208692	1
0	1362	710.795468664691	2
0	1363	711.374629841665	1
0	1365	712.806405744465	0
0	1368	713.55939709832	1
0	1369	714.44955381348	0
0	1376	725.341621037974	1
0	1377	725.349570967084	0
0	1388	731.520846162531	1
0	1389	731.864904150408	0
0	1392	732.365409263655	1
0	1394	732.706709690618	2
0	1395	733.278569698515	1
0	1397	734.493096484043	0
0	1420	745.530961883871	1
0	1422	746.069720238311	2
0	1423	746.152777643404	1
0	1426	746.769378465046	2
0	1427	747.936941277623	1
0	1430	749.657519152075	2
0	1432	750.431916269612	3
0	1433	750.722226835659	2
0	1435	751.424056420564	1
0	1437	752.349175865793	0
0	1440	754.006754965947	1
0	1441	754.422108374733	0
0	1468	777.787539059695	1
0	1469	778.009801524446	0
0	1496	791.468546792649	1
0	1498	791.817039388983	2
0	1499	792.026959790016	1
0	1501	792.894102647665	0
0	1508	798.995121910441	1
0	1509	799.035211063221	0
0	1516	804.201204072525	1
0	1518	805.712995788557	2
0	1520	805.978374357765	3
0	1522	805.995234120837	4
0	1523	807.761011446804	3
0	1525	808.114603581385	2
0	1528	808.823235920033	3
0	1529	809.001987585488	2
0	1531	809.724699570211	1
0	1533	809.889455580598	0
0	1540	814.720085214335	1
0	1541	815.347190139893	0
0	1548	818.039715779905	1
0	1549	818.446374806931	0
0	1552	818.465997105837	1
0	1553	818.925503229677	0
0	1564	822.081249036088	1
0	1566	822.769256373243	2
0	1567	823.611635405762	1
0	1569	823.833855419357	0
0	1576	824.688351761979	1
0	1578	824.746711930705	2
0	1579	825.549630311637	1
0	1581	825.746260905825	0
0	1588	831.98360086363	1
0	1589	832.032133410891	0
0	1596	837.145060409608	1
0	1598	838.822948178449	2
0	1599	839.365953906675	1
0	1602	839.802100021489	2
0	1603	840.215667637818	1
0	1605	841.272051179852	0
0	1612	844.987077758491	1
0	1613	845.630825009027	0
0	1628	855.116572448719	1
0	1629	855.27043350631	0
0	1652	868.137655775345	1
0	1654	869.698627658117	2
0	1655	870.563126010283	1
0	1657	870.984746255476	0
0	1660	871.058343376923	1
0	1661	871.623009526354	0
0	1700	894.603781782317	1
0	1701	894.794264184904	0
0	1704	895.060305922174	1
0	1705	896.898902772152	0
0	1720	900.528150433871	1
0	1722	901.795455171079	2
0	1724	902.158642282712	3
0	1725	902.356087601531	2
0	1727	902.682553739728	1
0	1730	903.056814358316	2
0	1731	903.489844997106	1
0	1734	903.622418871802	2
0	1735	904.137385053693	1
0	1737	905.509240022146	0
0	1744	909.037706105305	1
0	1745	909.136315371303	0
0	1756	918.224300577514	1
0	1758	918.364687613064	2
0	1759	918.930913108668	1
0	1762	919.470265682487	2
0	1763	919.496546279098	1
0	1766	919.496720029011	2
0	1768	921.362591457827	3
0	1769	921.684010182732	2
0	1771	922.110061055016	1
0	1774	922.460819511605	2
0	1776	922.936133476506	3
0	1777	923.423905159931	2
0	1780	923.554012825944	3
0	1782	924.310471111422	4
0	1783	927.118803757351	3
0	1785	927.254418359708	2
0	1787	927.849911392629	1
0	1790	927.9629519929	2
0	1792	928.737953981924	3
0	1794	930.473149800191	4
0	1796	930.501546206132	5
0	1797	931.496272530969	4
0	1799	932.798482554171	3
0	1801	932.842949781303	2
0	1803	933.152636932857	1
0	1805	934.625069046414	0
0	1816	943.332762905901	1
0	1817	943.487149249903	0
0	1828	948.361013473196	1
0	1830	948.596048238863	2
0	1832	948.70170651869	3
0	1833	949.56438890144	2
0	1835	950.086304666457	1
0	1838	950.847885706357	2
0	1840	950.921262410405	3
0	1841	951.155853739927	2
0	1843	951.388781054324	1
0	1846	953.094833005	2
0	1848	953.51478846929	3
0	1850	953.96542838012	4
0	1851	955.026729358742	3
0	1853	955.063524822174	2
0	1855	956.42197730756	1
0	1857	956.567931102271	0
0	1876	968.091502973329	1
0	1877	968.494205296918	0
0	1888	974.290619439051	1
0	1889	974.517198091756	0
0	1892	974.880029964337	1
0	1893	974.957913925066	0
0	1900	979.295869158662	1
0	1901	979.405254169805	0
0	1932	996.435617273927	1
0	1933	996.95712516788	0
1	6	2.547909813336	2.045869857952
1	8	2.779487777047	2.16392587442
1	14	6.683672537138	2.508513975215
1	16	7.353906619188	2.274461827915
1	22	13.794836683353	0.946090006586
1	28	15.246877164345	2.209902421587
1	30	15.91365119082	1.865873703124
1	32	16.265765828528	1.343649367743
1	36	16.591385626743	0.207911680168
1	40	25.849320860399	0.084187660685
1	44	30.409682101011	1.341092699622
1	48	31.747303052548	0.582159132198
1	52	34.761234859342	0.172343342661
1	56	37.264200644518	2.119738956045
1	62	38.35579314785	0.320324369222
1	66	38.890629784164	0.620068153201
1	70	39.24172025488	0.514457581081
1	72	40.232701955553	1.251827483893
1	76	44.053869066219	0.867114472293
1	80	45.586179313719	0.91611374293
1	84	46.334148575925	0.308999852412
1	92	48.992757109547	0.335033509225
1	98	50.744647531415	2.057547742167
1	100	50.900324386013	2.017198260579
1	102	53.129761431317	3.661679663081
1	104	53.310819213005	3.049040940184
1	108	57.169519521942	3.322308458681
1	118	63.412585310927	3.224559994917
1	120	63.437192151368	1.601118660835
1	122	64.086134374095	2.060233238715
1	124	64.314988632628	1.871556055535
1	128	74.684270864342	1.203451646156
1	132	77.302572458371	1.511923720499
1	136	79.521653973408	0.023200145187
1	140	82.275280933318	0.861951379568
1	144	83.071475573711	0.001643519969
1	148	84.712658488062	0.724581309565
1	152	87.357542335133	1.021082435634
1	156	93.966145592723	4.242223194722
1	162	95.221576779116	0.299886368571
1	164	96.843577712084	1.910384162521
1	168	99.527069691511	2.043943837516
1	174	102.243409925529	2.560703319656
1	176	102.245626595758	2.117219291311
1	180	103.148155215785	0.633913405036
1	192	108.215818037463	3.988296201111
1	194	108.633649923658	2.672453186271
1	196	109.424314009271	3.329754259731
1	198	110.362601362526	3.249904589287
1	204	111.835997684833	4.333104543347
1	206	111.965592230101	1.101556411282
1	208	111.995135937785	0.696093753964
1	212	112.716451326672	0.090500021879
1	216	118.2010191378	0.118168648088
1	220	119.117163825082	0.289343604681
1	232	123.46392246575	3.349990068576
1	234	126.329566107489	6.087171924297
1	238	127.164465809319	6.27795493085
1	242	128.173300109084	5.288715606669
1	248	129.844094384344	6.447173090969
1	250	130.061170110537	3.271420812863
1	252	132.498736391776	4.76168772225
1	254	133.831735104197	5.125985976148
1	258	135.573623363475	6.148796257278
1	260	135.672563127681	1.021820819507
1	264	140.341553287477	0.447926596595
1	268	142.23528130241	0.036154813254
1	272	144.093583841079	0.790447717933
1	282	146.5645126735	1.590335163692
1	284	146.773590279305	1.315322583864
1	286	148.638276831708	2.838358681196
1	288	149.093159783344	3.188247693924
1	292	149.798523538951	0.280098725403
1	302	153.167460658789	1.585172090745
1	306	154.185999204299	2.315413822125
1	308	154.866062461317	2.606553305556
1	310	155.123002204028	1.995470844313
1	312	155.998870401333	2.103340944229
1	316	162.946672237075	2.801800874858
1	320	167.446198684469	2.874224375917
1	324	170.084475684801	0.118437226254
1	328	171.998981003343	1.855050532764
1	332	173.904709850477	0.424690971355
1	336	183.967464341025	0.106280131352
1	340	185.21469599846	0.483549461389
1	344	186.76875150328	0.714074220678
1	360	192.012117932195	3.246840438218
1	362	192.137123303142	2.438948122264
1	364	192.254905932684	2.48514993425
1	366	192.700700766048	2.002066103939
1	368	193.351438179365	2.32148966433
1	370	194.547437362332	3.492595750256
1	374	196.444424228794	4.613260683232
1	376	197.167490485497	1.408284088193
1	380	199.493650882867	0.591688355163
1	384	201.695580817015	1.611822847007
1	388	207.167964986461	0.020602153905
1	392	209.427055632818	0.850078573625
1	398	210.438406790556	0.529980613238
1	404	214.647273301592	4.629062919837
1	406	215.634782804462	5.050963427265
1	408	215.690255449377	2.285864111173
1	412	216.848642841741	0.211311048652
1	416	219.99643152002	0.602244598108
1	420	229.40372312184	1.213828119955
1	424	230.376321945967	0.40353918646
1	428	231.831005248825	0.446260848568
1	434	234.418994003849	2.544281732896
1	438	237.490107513095	3.908418376012
1	440	238.013825440339	1.38639663344
1	446	242.462277304751	2.288397747385
1	448	242.863132936864	2.137560149974
1	452	244.673477493236	0.086362747488
1	456	245.64291759719	0.748062945227
1	460	248.829442145054	1.081296243649
1	464	255.405338360021	2.234779682056
1	472	259.044886128878	3.356918742931
1	476	259.974541715126	4.012524781301
1	480	264.084807420402	7.861848615718
1	484	266.433197171506	7.271471790488
1	486	266.7357034859	4.727238714265
1	490	268.193843546107	3.709291816303
1	502	271.857034876618	4.954158447513
1	504	272.130998730589	3.411819379067
1	506	272.549053817893	3.016897887456
1	508	272.799417961345	2.331364101342
1	512	274.658215029717	3.01077167248
1	516	275.64790684668	3.827049134713
1	518	275.871281042412	1.979568038633
1	520	275.933258760924	1.137690432228
1	524	278.717712043289	0.597370849886
1	530	280.757082413429	1.677559000301
1	532	281.063931504911	0.501781662259
1	536	282.877826032389	0.065500031148
1	540	283.750048166187	0.277213950815
1	544	286.361997625683	0.088908228102
1	556	290.340565071623	1.649101414938
1	560	292.055370487608	3.162000011172
1	564	294.64092551494	5.532410245563
1	566	296.060372492196	6.578595378131
1	568	296.950444634142	6.625565302191
1	572	299.063083839411	8.303522110882
1	574	300.988226274894	6.857732105967
1	576	301.049911950595	3.594947522967
1	584	305.731242605715	3.352311311566
1	586	306.163093106457	3.410422007579
1	590	306.523371834937	2.013109096981
1	592	308.270382626105	2.067638710591
1	600	309.963640846368	1.077097245344
1	602	310.107382983541	1.162041852399
1	604	310.221100014451	0.89595002918
1	608	318.805185150904	0.869689918269
1	612	326.422852861976	0.640228693011
1	616	332.217202734323	1.056331222117
1	620	333.887610823315	0.276885964446
1	624	339.141451495459	0.0316248992
1	628	342.56821647893	0.785772131815
1	632	343.206805703847	0.453673974537
1	638	349.390724738903	2.228714650175
1	640	350.005699760794	1.12770401777
1	648	352.956857829947	0.542409356521
1	650	354.24267334828	1.627890285713
1	654	354.991711390804	2.110237233879
1	660	358.241333686724	3.355587360913
1	666	361.137379258155	5.785802838737
1	668	361.374546943073	5.12269628276
1	670	361.932587479399	2.568846704479
1	672	362.858888500597	2.122027838845
1	678	364.828910996165	1.380613756545
1	684	366.238940153608	2.427660022491
1	686	367.455041484921	2.140402545631
1	688	367.701578772357	2.155725243322
1	692	376.173486255593	0.554494259276
1	696	379.240049623269	0.551386538259
1	700	382.990953816386	0.383673922434
1	704	385.484731460504	0.454654853815
1	708	390.305648143847	0.649975267209
1	712	393.331025198995	0.781083525546
1	718	395.708850683183	0.308198094578
1	722	395.853141153886	0.292438734522
1	724	396.212514161363	0.443026442664
1	728	396.567558650675	0.146738334554
1	734	397.133971547402	0.382286132746
1	736	398.270854979525	1.286285322062
1	742	399.208699978873	0.91964924737
1	750	405.095973358289	6.025374800257
1	752	405.891654386912	4.431869735947
1	754	406.522628879127	3.953235695684
1	756	407.550828004427	3.335312164955
1	760	409.259451706576	1.297512269893
1	768	412.87202891646	0.956627277552
1	770	413.917682609927	1.876425857496
1	774	414.846563048199	2.490101502583
1	778	415.284735451383	1.152381067445
1	784	416.787033424416	1.676372299296
1	786	416.982636426067	0.631015458699
1	788	417.352585898261	0.774297416511
1	792	418.715893638243	0.281873642654
1	796	420.218613839027	0.073932896938
1	800	422.173301116985	0.427295411652
1	804	423.024587302937	0.012931322539
1	808	426.903599283229	0.181092505677
1	812	427.494769585589	0.062265300198
1	816	429.764120538526	0.325946141801
1	820	430.910099109853	0.428220032708
1	824	432.669169419748	0.894583825563
1	830	437.345063376679	1.491713240948
1	834	438.325238087548	1.523452642784
1	838	438.49921170985	0.375620687917
1	842	440.74129127294	2.315156339276
1	846	442.052816869823	3.469800467488
1	848	442.741510016004	1.828416200208
1	852	445.375207392671	1.031814436373
1	856	446.973553692391	0.712279221728
1	860	450.973730517221	0.184173058939
1	864	453.806646412275	1.025728360546
1	874	460.439956660504	4.436927601144
1	876	460.64021558694	3.738150110948
1	878	461.46736578504	4.509091430262
1	880	461.594936713725	1.69444437709
1	884	467.864119805973	2.664155512299
1	890	471.416455790783	2.409028750533
1	894	472.799494092694	2.670817970288
1	896	474.228827653668	1.618662734954
1	900	476.774721645373	0.154172438476
1	904	479.405567343199	1.671016484604
1	908	485.541107552104	0.213538942425
1	912	487.61620586224	0.168117057741
1	918	488.468793697188	0.522694040308
1	920	488.469176670052	0.479098023044
1	930	492.020807995672	1.867676510888
1	932	493.36500401442	2.735190739593
1	934	493.426478662229	2.169904499031
1	936	494.300933866079	2.692954798842
1	942	496.247201199524	1.470807039788
1	944	497.163474847246	1.556453362774
1	950	500.542409471877	3.256252798858
1	954	501.020087893401	1.605176739476
1	956	501.70727357347	0.921427403421
1	960	502.892434605168	0.413001408868
1	964	511.61752247643	1.357709784128
1	968	513.469157277275	0.357383576605
1	972	526.203321376214	1.603387604676
1	976	529.605357181757	0.089869763691
1	984	535.100538833287	0.268747328073
1	986	535.3827357588	0.331876401111
1	988	535.517463127307	0.42694371695
1	994	536.47056814951	0.226940734314
1	998	538.312838515004	2.006724147505
1	1000	538.778742478363	2.093499635547
1	1004	540.449754196028	0.246772688526
1	1008	547.461553848816	1.871665570757
1	1016	550.736186304537	0.856548066793
1	1018	552.241793137355	2.330771724097
1	1024	554.439374695438	3.834902951942
1	1026	555.952286263847	3.33911934515
1	1028	556.260324336983	2.313924535978
1	1032	556.459396210584	0.009755743839
1	1040	568.666421517471	0.79731609377
1	1042	569.280956942147	1.229377452252
1	1046	570.919281116718	2.526122477842
1	1048	571.130812765584	0.278893594427
1	1056	578.724910954131	1.005707573075
1	1058	579.276378120494	1.547343651863
1	1060	579.575035379378	1.41666306653
1	1064	584.083520621487	0.345990027385
1	1068	588.779550776128	0.554505889066
1	1074	592.064311234197	0.846714769089
1	1078	596.67505163795	4.927675586092
1	1080	597.562268181796	5.397406200666
1	1086	600.831651841282	2.188358571344
1	1088	601.899379814014	1.280005359109
1	1092	604.05576114591	0.640135233319
1	1096	610.282457645315	0.364632995937
1	1100	611.148177476874	0.43105923519
1	1112	613.427229284402	1.501185918454
1	1116	613.963017114125	1.131428923594
1	1118	614.03498844227	1.087482524472
1	1124	615.140363866919	1.802022345986
1	1126	615.310409464615	1.909602231991
1	1130	615.541714585146	1.844057316331
1	1132	615.943244050983	1.766418440262
1	1138	616.959835691948	2.423455925871
1	1142	617.533486738527	2.068570911513
1	1148	619.200638419429	2.888560750454
1	1152	619.558088952584	3.07570239713
1	1154	620.426317058737	2.905562589475
1	1156	620.454231527817	2.541604638763
1	1166	622.187575019248	4.079958012622
1	1168	622.236490483455	2.948441396034
1	1170	622.959261100837	2.485295428352
1	1174	624.951318939619	3.823182909005
1	1180	626.204193493187	4.338134944621
1	1182	626.698561673533	4.676211360469
1	1184	626.841169333414	2.360857158154
1	1186	626.871689911688	1.154635652648
1	1188	627.326271404933	1.523124318455
1	1194	631.796567575278	2.4443507825
1	1196	632.364647899729	0.799359206576
1	1204	636.568054391274	2.598996015097
1	1206	639.565675669695	5.449177220725
1	1208	639.572305707496	4.823172077292
1	1214	641.823759599503	0.567273552771
1	1216	642.698698798176	0.891392440484
1	1220	643.921047034429	0.428980809531
1	1226	644.438952366626	0.471656223737
1	1230	644.878731903736	0.446209467965
1	1232	645.141438964322	0.501665667079
1	1236	646.156210168598	0.02638221009
1	1240	649.271290030708	1.313728153181
1	1252	657.594443497267	6.512854345365
1	1254	659.246214008509	7.687430632523
1	1256	660.032145422413	6.349605162367
1	1258	660.223367979306	6.462635072967
1	1260	660.243080968913	3.683887252303
1	1264	660.549876892366	0.071298830489
1	1270	662.708225077877	0.745387199918
1	1272	662.818665367192	0.840013519511
1	1276	663.8354183927	0.350973276049
1	1280	664.660835352369	0.321355243861
1	1286	668.400636466909	3.526954708425
1	1288	669.034885663186	3.496686035256
1	1292	669.705471567405	0.335726005921
1	1300	673.647996412871	2.784533281315
1	1302	673.740375679499	1.429678605218
1	1304	675.011200376147	2.52863010858
1	1308	679.435768911952	0.147200420306
1	1312	684.69090261699	2.20635698401
1	1316	685.677502037065	0.582071555343
1	1322	694.068842533207	1.542374668741
1	1326	695.347139270316	2.702180250415
1	1328	696.40604272513	1.82482948903
1	1332	700.584071365918	1.456601539891
1	1338	702.294747311644	1.670410824425
1	1344	702.914015120843	1.57983327701
1	1352	705.830921980477	3.452518758562
1	1356	708.273052848392	5.693685663594
1	1358	708.93908004412	5.034008946509
1	1360	709.187890208692	5.077898006987
1	1364	711.374629841665	5.851443992849
1	1366	712.806405744465	6.356408158334
1	1370	714.44955381348	3.654085148789
1	1372	714.668416324296	1.109019225976
1	1378	725.349570967084	1.446480343449
1	1380	726.420605805795	1.078984767821
1	1384	730.566865667441	3.707418955919
1	1390	731.864904150408	0.491502116586
1	1396	733.278569698515	1.757723535984
1	1398	734.493096484043	2.127687220388
1	1400	734.96963765733	2.262927966712
1	1404	736.675114616049	0.253200876869
1	1408	740.879966737906	0.459249510082
1	1412	742.98500429314	1.057940364199
1	1416	743.71916605145	0.297580700555
1	1424	746.152777643404	1.955448031352
1	1428	747.936941277623	2.405979393752
1	1434	750.722226835659	4.652506597348
1	1436	751.424056420564	4.654677955518
1	1438	752.349175865793	2.691656713718
1	1442	754.422108374733	3.990192105121
1	1444	755.086467293594	1.079712327647
1	1448	758.25238185265	0.97866760903
1	1452	759.725067333844	0.419779112935
1	1456	768.356074886381	0.632190383766
1	1460	770.538621640424	0.063380813763
1	1464	777.015075808016	0.733482822881
1	1470	778.009801524446	0.596300253122
1	1472	778.365024470304	0.577485410609
1	1476	781.341301254003	0.189801991275
1	1480	782.510959925155	0.416521581255
1	1484	783.894477848845	0.34934547932
1	1488	786.002592287714	0.450260133624
1	1492	787.66258428589	1.654195055703
1	1500	792.026959790016	2.259521427984
1	1502	792.894102647665	1.425555855016
1	1504	793.441515530505	1.624476141522
1	1510	799.035211063221	2.287179492815
1	1512	799.919706645014	0.924584734573
1	1524	807.761011446804	5.687248772048
1	1526	808.114603581385	3.91339950886
1	1530	809.001987585488	3.288991796931
1	1532	809.724699570211	3.746325212446
1	1534	809.889455580598	3.894221459761
1	1536	811.309164420045	2.485928500012
1	1542	815.347190139893	1.791449841701
1	1544	817.125566530845	2.40548131651
1	1550	818.446374806931	0.421775816304
1	1554	818.925503229677	0.885787449772
1	1556	819.830075712952	1.364078607115
1	1560	821.170940713006	0.043818094833
1	1568	823.611635405762	1.685807637316
1	1570	823.833855419357	1.752606383269
1	1572	824.419952010905	1.650695637662
1	1580	825.549630311637	1.016483724241
1	1582	825.746260905825	1.057909143846
1	1584	827.37697942321	2.630267492505
1	1590	832.032133410891	1.067548859744
1	1592	832.264749617341	0.281148753711
1	1600	839.365953906675	3.56616700038
1	1604	840.215667637818	3.07060722821
1	1606	841.272051179852	2.449103001403
1	1608	841.967309832933	2.165209811444
1	1614	845.630825009027	1.115987193406
1	1616	847.814764956395	2.827687197904
1	1620	851.476608567618	0.060159593835
1	1624	854.548346071645	0.349198181546
1	1630	855.27043350631	0.195642189913
1	1632	855.318118187392	0.201545738673
1	1636	857.199287290656	0.418259022986
1	1640	859.748564160834	2.469829690555
1	1644	861.454526416522	0.291310346906
1	1648	864.960735128973	0.119952938546
1	1656	870.563126010283	2.844642318592
1	1658	870.984746255476	2.847090480131
1	1662	871.623009526354	1.924381868237
1	1664	872.787270573919	1.728927196996
1	1668	878.201701366067	1.698732802192
1	1672	880.193723709042	0.257356329443
1	1676	880.490291973012	0.22608895541
1	1680	881.367213245091	0.552513932022
1	1684	883.638435396446	1.881200353171
1	1688	888.87464934384	2.618960330371
1	1692	890.137457292406	0.211219128283
1	1696	891.921871261981	1.169440023568
1	1702	894.794264184904	0.590353585273
1	1706	896.898902772152	2.295120989835
1	1708	897.249327431461	2.189021509287
1	1712	897.65708025606	0.314990025625
1	1716	898.291601259059	0.022175980365
1	1726	902.356087601531	2.050666587888