version 3
run General-6-20221027-10:37:26-16912
attr configname General
attr datetime 20221027-10:37:26
attr datetimef 20221027-103726
attr experiment General
attr inifile simu_1.ini
attr iterationvars ""
attr iterationvarsd ""
attr iterationvarsf ""
attr measurement ""
attr network Rete
attr processid 16912
attr repetition 6
attr replication #6
attr resultdir results
attr runnumber 6
attr seedset 6
config network Rete
config record-eventlog false
config repeat 10
config sim-time-limit 1000s
config simtime-resolution ps
config **.Servente.serviceTime exponential(1s)
config **.Arrivi.interArrivalTime exponential(2s)

vector 0 Rete.Servente queueLength:vector ETV
attr interpolationmode sample-hold
attr recordingmode vector
attr title "queue length"
vector 1 Rete.Pozzo lifeTime:vector ETV
attr interpolationmode none
attr recordingmode vector
attr title "lifetime of arrived jobs"
attr unit s
0	0	0	0
0	8	10.830155918561	1
0	10	10.962979630283	2
0	12	11.048161384884	3
0	14	11.972579648433	4
0	15	12.081863879434	3
0	18	12.20038830531	4
0	20	14.008381877868	5
0	22	14.217929228085	6
0	24	15.727197357057	7
0	25	16.283491990761	6
0	27	16.826165122757	5
0	29	17.58203161098	4
0	32	17.602602109058	5
0	33	17.990613344476	4
0	36	18.921379857108	5
0	37	18.964849523224	4
0	39	19.541354623507	3
0	41	20.947904619571	2
0	43	22.279264324278	1
0	46	22.409711733994	2
0	47	22.773520610925	1
0	49	23.047712479244	0
0	52	23.869485160878	1
0	53	23.912499126662	0
0	56	24.2077788488	1
0	57	24.949137372997	0
0	60	26.78487117978	1
0	61	29.576990003026	0
0	88	42.269478647062	1
0	90	43.152996111683	2
0	91	43.569855719869	1
0	93	44.528210389213	0
0	108	48.881449108179	1
0	110	49.38680908715	2
0	112	50.419344239765	3
0	114	50.910864572047	4
0	116	51.399984989756	5
0	117	51.865856599929	4
0	119	53.129140171058	3
0	121	53.745773435709	2
0	124	54.892700677386	3
0	126	56.470662123715	4
0	128	57.061053399696	5
0	129	58.89695380683	4
0	131	60.009592285582	3
0	134	60.159713267299	4
0	135	61.356130893946	3
0	138	61.987330448848	4
0	139	62.629445101361	3
0	141	64.228072995536	2
0	144	64.514295896088	3
0	145	66.998257142231	2
0	147	67.431828201129	1
0	150	68.786681808851	2
0	151	69.155581569399	1
0	154	69.371760443845	2
0	155	69.520780344879	1
0	158	70.401670405559	2
0	159	70.888744307782	1
0	161	71.38012561306	0
0	172	76.891095422427	1
0	174	77.799754843272	2
0	175	78.960042789424	1
0	178	78.997245211401	2
0	180	79.933443075458	3
0	181	81.580773687069	2
0	184	82.568376452926	3
0	185	82.817368211042	2
0	187	82.903425738946	1
0	190	83.127373334683	2
0	191	84.041811789522	1
0	193	84.103239312346	0
0	196	84.143608318153	1
0	197	85.576752925648	0
0	212	91.224947217914	1
0	213	91.53325056385	0
0	232	99.61607910339	1
0	233	99.8331371136	0
0	240	102.845752965004	1
0	241	103.404310985253	0
0	244	104.086888366884	1
0	246	106.308194423548	2
0	247	107.157324455933	1
0	249	109.308725789598	0
0	296	134.044275652425	1
0	298	134.045981340157	2
0	300	135.084713509693	3
0	301	135.96043298262	2
0	303	136.120943962878	1
0	306	136.225199050161	2
0	307	137.006066837166	1
0	309	137.745848184589	0
0	320	140.989372116852	1
0	321	141.094540884518	0
0	328	145.995948858068	1
0	329	146.159963371628	0
0	344	148.79079813722	1
0	346	149.551203955452	2
0	347	149.771922989433	1
0	349	150.819387821081	0
0	356	153.865022011436	1
0	357	154.157313920548	0
0	364	155.352026516867	1
0	365	156.312004399518	0
0	384	173.043403123038	1
0	386	174.188056175725	2
0	387	174.264184663664	1
0	389	175.348572658234	0
0	392	175.82305948036	1
0	393	176.139791055153	0
0	400	176.651823372971	1
0	401	178.363361810135	0
0	412	182.522180714769	1
0	413	183.087593616092	0
0	428	191.703567981642	1
0	429	193.050351817425	0
0	440	199.846305133277	1
0	442	199.89828765948	2
0	443	199.945711999908	1
0	445	201.370907891887	0
0	448	202.104358148346	1
0	450	204.140930962719	2
0	451	204.157881219971	1
0	453	204.988982138672	0
0	468	214.954633023873	1
0	469	215.985129760541	0
0	480	226.462319202411	1
0	481	226.715199612939	0
0	492	232.296994891167	1
0	493	232.487948978903	0
0	508	236.65240139747	1
0	509	236.68330692269	0
0	520	244.700265517196	1
0	521	244.881255639379	0
0	536	254.670749669793	1
0	537	256.118704058355	0
0	552	264.506753463504	1
0	553	264.711901917229	0
0	556	265.920640523271	1
0	558	266.385425435681	2
0	559	266.621826649052	1
0	562	267.706799258736	2
0	563	267.935444612689	1
0	565	268.970504865282	0
0	568	269.658615071297	1
0	569	272.585112056544	0
0	572	272.725088019855	1
0	573	273.023225672682	0
0	580	275.834549515202	1
0	582	276.706661663525	2
0	583	277.69454036806	1
0	586	278.475637450693	2
0	587	280.765957480222	1
0	589	281.723674896374	0
0	604	288.957488952306	1
0	605	289.365723610679	0
0	648	312.241126542679	1
0	649	314.484184086411	0
0	652	314.603747605896	1
0	653	314.768687147399	0
0	668	322.762082114358	1
0	669	322.766259575824	0
0	676	328.186737836782	1
0	678	328.305034573471	2
0	679	328.731021115619	1
0	682	329.009436243161	2
0	683	329.074076744369	1
0	686	329.131774722257	2
0	687	329.661416192773	1
0	689	329.669368745811	0
0	700	336.602027725016	1
0	701	336.877071640392	0
0	720	345.809673347	1
0	721	347.850411352888	0
0	724	348.175733000777	1
0	726	348.736724625162	2
0	728	349.289886333983	3
0	729	350.318677889005	2
0	731	350.337623112775	1
0	734	350.402145209726	2
0	735	351.350654432622	1
0	737	351.481205399575	0
0	780	370.386562113618	1
0	782	370.513852517645	2
0	784	370.529704677034	3
0	786	370.812298595838	4
0	787	372.844896191378	3
0	790	372.866027288534	4
0	792	374.935401924262	5
0	793	375.935985192856	4
0	795	377.07620505078	3
0	797	377.463729577639	2
0	800	378.026912409985	3
0	801	378.326843265313	2
0	804	379.153381079266	3
0	805	379.861768562521	2
0	808	380.642834720225	3
0	809	381.586882114456	2
0	812	382.306529295737	3
0	813	382.627685973249	2
0	815	382.825697540307	1
0	817	382.94238114314	0
0	828	388.273830083853	1
0	829	388.502292612411	0
0	840	399.621234884983	1
0	842	399.857150918564	2
0	843	400.735964468988	1
0	846	401.098639902855	2
0	847	401.946595210471	1
0	849	402.650585539919	0
0	876	415.454917113092	1
0	877	415.504657197736	0
0	908	433.181370048663	1
0	909	433.602493474874	0
0	924	440.373804885833	1
0	925	440.760413284132	0
0	928	441.959209313555	1
0	929	442.667550102053	0
0	952	453.547551267774	1
0	954	453.714736160745	2
0	955	454.230534324442	1
0	958	454.444113664086	2
0	960	456.71028877559	3
0	961	456.9472261194	2
0	964	457.231843896533	3
0	966	457.258976628926	4
0	967	457.653445259794	3
0	969	458.199920311609	2
0	971	459.349714522334	1
0	973	459.417847554793	0
0	976	460.795676877174	1
0	977	461.826918408766	0
0	984	463.250690581813	1
0	986	463.784553848255	2
0	987	464.105272238812	1
0	989	464.934541986995	0
0	1024	484.992973970888	1
0	1026	485.592596868488	2
0	1027	486.181710392183	1
0	1030	486.442838366632	2
0	1031	487.640159377042	1
0	1033	487.945555195253	0
0	1036	488.351603132858	1
0	1037	488.444563159888	0
0	1076	511.810750069386	1
0	1078	511.951530181612	2
0	1079	512.302418142429	1
0	1082	512.830383097878	2
0	1083	513.443488517964	1
0	1086	513.586257158427	2
0	1087	513.619862896295	1
0	1089	514.048608778692	0
0	1096	518.362919325982	1
0	1098	519.240099017393	2
0	1099	519.639940512983	1
0	1101	520.058299209058	0
0	1104	520.124325870136	1
0	1106	520.731676729084	2
0	1107	521.082122975265	1
0	1110	522.558429408647	2
0	1112	523.095606721229	3
0	1113	524.27945390224	2
0	1115	525.170311464676	1
0	1117	526.015419024001	0
0	1120	526.883222231613	1
0	1122	526.904337080973	2
0	1124	527.012140235069	3
0	1126	528.632619708011	4
0	1128	529.174978828076	5
0	1129	531.826777591079	4
0	1131	532.228729027189	3
0	1133	534.157752847036	2
0	1135	535.771872660285	1
0	1137	536.11615737028	0
0	1152	541.899105764384	1
0	1154	541.992909874054	2
0	1155	542.52292507019	1
0	1157	543.025570561794	0
0	1164	545.84764540246	1
0	1165	545.979310586228	0
0	1168	546.188999821176	1
0	1169	546.364522346283	0
0	1176	550.460059638401	1
0	1177	550.775198248941	0
0	1180	551.023336448611	1
0	1181	551.078508535545	0
0	1188	553.109915126808	1
0	1190	553.213404516078	2
0	1191	555.066274003586	1
0	1194	555.273389479728	2
0	1196	556.386359217825	3
0	1197	558.40617726411	2
0	1199	558.912373582238	1
0	1201	559.352255049372	0
0	1216	562.952863280017	1
0	1218	565.009346344764	2
0	1219	565.104163700895	1
0	1222	565.540846896062	2
0	1223	566.578842417039	1
0	1225	568.011255302211	0
0	1228	569.603814852071	1
0	1229	569.652323257006	0
0	1232	569.738267222451	1
0	1233	569.843670245769	0
0	1244	574.835396188891	1
0	1245	574.937371030024	0
0	1256	580.936868507465	1
0	1257	581.244632769718	0
0	1260	581.533423306254	1
0	1262	581.990885403058	2
0	1263	582.118009480986	1
0	1266	583.200836545388	2
0	1267	583.461454003607	1
0	1269	583.656262374135	0
0	1272	583.79838102961	1
0	1273	584.619478653159	0
0	1276	584.767830537502	1
0	1277	585.476127651602	0
0	1280	585.514277924174	1
0	1281	587.496646063614	0
0	1284	588.453281612526	1
0	1286	588.454320209498	2
0	1287	590.081283790514	1
0	1290	590.16166697537	2
0	1291	591.473170169122	1
0	1294	592.530547043684	2
0	1296	593.526355260676	3
0	1297	593.688196408071	2
0	1300	594.570519691986	3
0	1301	594.816569141166	2
0	1304	596.567138709263	3
0	1306	600.290796842205	4
0	1307	601.143257804275	3
0	1309	601.542300742134	2
0	1311	601.694563115059	1
0	1313	603.087008185558	0
0	1336	611.744101324898	1
0	1338	613.192974178617	2
0	1339	615.902410712377	1
0	1342	618.938639103209	2
0	1343	619.997773261553	1
0	1345	620.960812452559	0
0	1348	621.82610953599	1
0	1349	621.936561527041	0
0	1352	622.265642936602	1
0	1353	625.406581026697	0
0	1356	625.581181763774	1
0	1357	626.257590382738	0
0	1364	628.088073687222	1
0	1365	628.216793377983	0
0	1380	636.538225086326	1
0	1382	636.709310555591	2
0	1383	637.528313981238	1
0	1386	638.927708823181	2
0	1387	639.148732190653	1
0	1389	639.422040533563	0
0	1396	642.482692763241	1
0	1397	642.486662433782	0
0	1400	643.088839166967	1
0	1402	643.514087845113	2
0	1403	644.259472527477	1
0	1405	644.888012426895	0
0	1420	657.425026322026	1
0	1421	657.530269655247	0
0	1424	659.067119347321	1
0	1425	659.697364820349	0
0	1440	668.712099779668	1
0	1441	669.054686785154	0
0	1460	680.905006069242	1
0	1462	681.008224832432	2
0	1463	681.050525992869	1
0	1466	681.233217805619	2
0	1468	681.253490154745	3
0	1469	682.110551190407	2
0	1472	683.016142481736	3
0	1473	684.37526282682	2
0	1476	684.426158721802	3
0	1478	684.515932263133	4
0	1480	685.298854703514	5
0	1481	685.477959609438	4
0	1484	686.495763051686	5
0	1485	687.650102905552	4
0	1488	688.25121330266	5
0	1490	688.667308967218	6
0	1492	688.837425288283	7
0	1494	690.959989323485	8
0	1495	691.06811008768	7
0	1497	691.511633325771	6
0	1500	691.563498047586	7
0	1502	691.783881040327	8
0	1503	692.265957326868	7
0	1505	692.530090584652	6
0	1507	692.795432569036	5
0	1509	692.803715209064	4
0	1511	695.542494727381	3
0	1513	696.07679863777	2
0	1516	696.85160957613	3
0	1518	696.911639747979	4
0	1520	697.737241990572	5
0	1521	698.390727706456	4
0	1523	698.645923872209	3
0	1526	699.672461395754	4
0	1527	699.843260323315	3
0	1530	700.077565805861	4
0	1532	700.190658866944	5
0	1533	700.353131308543	4
0	1535	703.478515574433	3
0	1537	704.385124561257	2
0	1539	704.543899794637	1
0	1541	706.217760873798	0
0	1544	707.311587055287	1
0	1546	707.669254603832	2
0	1548	708.497643501586	3
0	1549	709.382463317453	2
0	1551	709.443607121949	1
0	1553	709.505920309216	0
0	1556	710.606342635254	1
0	1558	710.718524592957	2
0	1559	711.216457491905	1
0	1561	711.671667199523	0
0	1572	717.433030660814	1
0	1573	718.114892171595	0
0	1580	721.412821122146	1
0	1581	721.564649167174	0
0	1588	725.242270453834	1
0	1589	726.927149179085	0
0	1604	737.271632664562	1
0	1605	737.524152277093	0
0	1636	758.694852398714	1
0	1637	759.305207015907	0
0	1640	760.257778573321	1
0	1641	761.123272594492	0
0	1644	762.267267730946	1
0	1645	762.357661243244	0
0	1648	763.042170525568	1
0	1650	763.766809996767	2
0	1651	765.061170727616	1
0	1653	766.946110911712	0
0	1660	773.106720428582	1
0	1662	773.277832609231	2
0	1663	774.013854350656	1
0	1665	775.342962396004	0
0	1668	775.721734006791	1
0	1669	775.96784190083	0
0	1672	776.004517291798	1
0	1673	778.433246695786	0
0	1684	783.354303211854	1
0	1685	783.513486170846	0
0	1704	793.928609167904	1
0	1706	794.098603104754	2
0	1708	794.684328863058	3
0	1709	795.046707357871	2
0	1711	795.211646834968	1
0	1714	795.907238885351	2
0	1715	795.965433172398	1
0	1718	796.347492669405	2
0	1719	797.881816966131	1
0	1721	798.312366109042	0
0	1724	799.758105513288	1
0	1726	800.169143765689	2
0	1727	800.535784203557	1
0	1729	800.866865119548	0
0	1732	801.380586200042	1
0	1734	801.441590608235	2
0	1735	802.217184116182	1
0	1737	802.555918704802	0
0	1740	803.153070985127	1
0	1741	803.226356019488	0
0	1748	807.100218331811	1
0	1749	808.365275847343	0
0	1752	809.112406031268	1
0	1753	809.987003964356	0
0	1768	817.63337592798	1
0	1769	817.931894972482	0
0	1772	819.888546019568	1
0	1774	819.919446176678	2
0	1776	821.022341941226	3
0	1778	821.339998955524	4
0	1779	821.80487399387	3
0	1781	822.482445722994	2
0	1783	822.548232685665	1
0	1785	822.697974552622	0
0	1792	824.682029768991	1
0	1794	825.161243937005	2
0	1796	826.69581036787	3
0	1797	827.133594906057	2
0	1799	827.383543638758	1
0	1801	827.472740440198	0
0	1808	830.920438152766	1
0	1810	831.073961407211	2
0	1811	831.117698469409	1
0	1813	831.69120169843	0
0	1828	835.879978192876	1
0	1829	836.893808936905	0
0	1844	852.040564186312	1
0	1845	852.07004831872	0
0	1848	852.241306276613	1
0	1850	852.287629769636	2
0	1851	852.448789241466	1
0	1853	854.654757879107	0
0	1856	854.669845535617	1
0	1857	854.778719980999	0
0	1880	874.94136719781	1
0	1881	875.171389033631	0
0	1888	881.651517029565	1
0	1889	882.281148768149	0
0	1900	885.347368847859	1
0	1902	885.641540029022	2
0	1903	886.694287938765	1
0	1905	888.292140574311	0
0	1936	908.000984976994	1
0	1937	908.698720785439	0
0	1940	908.760593490186	1
0	1941	910.460541093713	0
0	1948	913.229963517882	1
0	1949	917.182158338865	0
0	1996	943.861083096996	1
0	1998	944.23120905954	2
0	1999	944.585977602655	1
0	2001	945.886000356316	0
0	2008	948.801052151201	1
0	2009	949.217235443682	0
0	2024	962.842931002755	1
0	2025	963.061335937115	0
0	2028	963.639352177048	1
0	2030	964.190832659584	2
0	2031	965.468378758425	1
0	2034	965.623684711447	2
0	2036	965.878412299389	3
0	2037	965.948112726911	2
0	2039	966.793446504033	1
0	2041	967.035503920014	0
0	2068	984.071478320054	1
0	2069	984.174422099964	0
1	4	4.870677388655	0.403436873027
1	16	12.081863879434	1.721650320492
1	26	16.283491990761	5.4533360722
1	28	16.826165122757	5.863185492474
1	30	17.58203161098	6.533870226096
1	34	17.990613344476	6.018033696043
1	38	18.964849523224	6.764461217914
1	40	19.541354623507	5.532972745639
1	42	20.947904619571	6.729975391486
1	44	22.279264324278	6.552066967221
1	48	22.773520610925	5.170918501867
1	50	23.047712479244	4.126332622136
1	54	23.912499126662	1.502787392668
1	58	24.949137372997	1.079652212119
1	62	29.576990003026	5.369211154226
1	64	31.29100094621	4.50612976643
1	68	32.229309201772	0.533072825903
1	72	35.067079598594	2.089634528471
1	76	36.982890130732	1.735905344088
1	80	38.539158536915	0.056014425338
1	84	40.976914385216	1.268110490067
1	92	43.569855719869	1.62035003482
1	94	44.528210389213	2.258731742151
1	96	45.763095259246	2.610099147563
1	100	46.598258952902	0.778567510912
1	104	47.121645152767	0.13333047145
1	118	51.865856599929	3.16172298673
1	120	53.129140171058	4.247691062879
1	122	53.745773435709	4.358964348559
1	130	58.89695380683	8.477609567065
1	132	60.009592285582	9.098727713535
1	136	61.356130893946	9.95614590419
1	140	62.629445101361	7.736744423975
1	142	64.228072995536	7.757410871821
1	146	66.998257142231	9.937203742535
1	148	67.431828201129	7.27211493383
1	152	69.155581569399	7.168251120551
1	156	69.520780344879	5.006484448791
1	160	70.888744307782	2.102062498931
1	162	71.38012561306	2.008365169215
1	164	72.667735734644	2.266065329085
1	168	73.667595305432	0.521057442418
1	176	78.960042789424	4.545002115486
1	182	81.580773687069	4.689678264642
1	186	82.817368211042	5.01761336777
1	188	82.903425738946	3.906180527545
1	192	84.041811789522	4.108368714064
1	194	84.103239312346	1.53486285942
1	198	85.576752925648	2.449379590965
1	200	87.023863596226	2.880255278073
1	204	88.357377468753	0.333878736685
1	208	89.585048153719	0.210155995097
1	214	91.53325056385	0.637241375495
1	216	91.940927176124	0.71597995821
1	220	95.817203304738	1.327026128887
1	224	96.602643043747	0.209619311167
1	228	97.368454182503	0.40212680151
1	234	99.8331371136	1.859364575156
1	236	100.787711489674	1.171632386284
1	242	103.404310985253	2.165122108811
1	248	107.157324455933	4.311571490929
1	250	109.308725789598	5.221837422714
1	252	109.508182874366	3.199988450818
1	256	110.898493219447	0.963409885406
1	260	111.888270746335	0.646471388763
1	264	112.835626704008	0.517777483906
1	268	114.251263561579	1.354344949233
1	272	120.492213378577	1.748316658121
1	276	128.053163976848	1.14957878346
1	280	128.658837615155	0.14997628114
1	284	131.318761748673	1.213434280999
1	288	131.41287556307	0.06063924296
1	292	132.540095259605	0.214017172621
1	302	135.96043298262	2.587521203563
1	304	136.120943962878	2.076668310453
1	308	137.006066837166	2.960085497009
1	310	137.745848184589	2.661134674896
1	312	137.924363491136	1.699164440975
1	316	139.563177710403	1.044764198374
1	322	141.094540884518	0.289836583841
1	324	141.136796716238	0.147424599386
1	330	146.159963371628	3.18744015593
1	332	146.228478301221	0.232529443153
1	336	147.153276904184	0.719368342242
1	340	148.166357535091	0.41748191204
1	348	149.771922989433	1.078838543499
1	350	150.819387821081	2.028589683861
1	352	151.745391962738	2.194188007286
1	358	154.157313920548	0.884825231204
1	360	154.281781417427	0.416759405991
1	366	156.312004399518	1.239428434031
1	368	156.540818066533	1.188791549666
1	372	160.266076319551	0.674065980308
1	376	169.079897529879	0.037295433542
1	380	169.621941505283	0.37892577402
1	388	174.264184663664	1.98799634961
1	390	175.348572658234	2.305169535196
1	394	176.139791055153	1.951734879428
1	396	176.598379542361	0.775320062001
1	402	178.363361810135	1.761172153561
1	404	178.686809868286	2.034986495315
1	408	179.207378273504	0.134284067107
1	414	183.087593616092	0.827321237892
1	416	183.398665789168	0.876485074399
1	420	187.820191759356	1.49181014403
1	424	191.277938002083	0.197727237544
1	430	193.050351817425	1.529041437623
1	432	193.986835873961	2.283267892319
1	436	195.792507964566	0.042645400277
1	444	199.945711999908	0.823882788347
1	446	201.370907891887	1.52460275861
1	452	204.157881219971	4.259593560491
1	454	204.988982138672	2.884623990326
1	456	206.376999869928	2.236068907209
1	460	207.91181069846	0.687266447601
1	464	212.072928423774	0.043672408235
1	470	215.985129760541	1.697545310516
1	472	215.998847152269	1.044214128396
1	476	216.948890832665	0.798599224166
1	482	226.715199612939	0.836548300418
1	484	226.835017843781	0.37269864137
1	488	230.852519344609	0.064833222106
1	494	232.487948978903	0.855017430148
1	496	233.152480066342	0.855485175175
1	500	235.074577771725	0.358708581211
1	504	235.623906526801	0.040609056986
1	510	236.68330692269	1.004832732443
1	512	236.816079376712	0.163677979242
1	516	239.786107911839	0.011673717607
1	522	244.881255639379	0.323885011602
1	524	245.240140937455	0.539875420259
1	528	250.734536491261	0.198838368065
1	532	251.26195281258	0.069326461243
1	538	256.118704058355	1.510651727884
1	540	256.630777917606	1.960028247813
1	544	258.412927379662	0.282117378032
1	548	261.351117113069	0.741858949929
1	554	264.711901917229	0.294351857266
1	560	266.621826649052	2.115073185548
1	564	267.935444612689	2.014804089418
1	566	268.970504865282	2.585079429601
1	570	272.585112056544	4.878312797808
1	574	273.023225672682	3.364610601385
1	576	273.277660774593	0.552572754738
1	584	277.69454036806	3.849696575439
1	588	280.765957480222	4.93140796502
1	590	281.723674896374	5.017013232849
1	592	285.186728918812	6.711091468119
1	596	287.696444983361	1.221132325621
1	600	287.843949681862	0.019576177248
1	606	289.365723610679	0.94889242042
1	608	289.652818081982	0.695329129676
1	612	290.570785271154	0.138613667756
1	616	293.106178770685	0.456118290349
1	620	294.46904139487	0.223260436742
1	624	296.660821578428	1.454493607489
1	628	299.992753376103	2.720849287715
1	632	301.859850855017	0.026757201066
1	636	303.587722487135	0.295799745227
1	640	307.862443868113	0.309516102999
1	644	308.136981523483	0.153533205963
1	650	314.484184086411	3.026177169766
1	654	314.768687147399	2.52756060472
1	656	315.209032818168	0.605285212272
1	660	317.077051917548	0.050177166679
1	664	320.421248318221	0.271980218854
1	670	322.766259575824	2.144084616817
1	672	326.102597030901	3.340514916543
1	680	328.731021115619	1.067194515136
1	684	329.074076744369	0.887338907587
1	688	329.661416192773	1.356381619302
1	690	329.669368745811	0.65993250265
1	692	329.83795414787	0.706179425613
1	696	333.442496619177	0.314091889151
1	702	336.877071640392	0.794525959299
1	704	337.167794912967	0.565767187951
1	708	340.855337977286	1.86225545422
1	712	343.216248583286	0.697586792167
1	716	344.757743924849	0.662985450283
1	722	347.850411352888	2.356604483431
1	730	350.318677889005	4.509004542005
1	732	350.337623112775	2.161890111998
1	736	351.350654432622	2.61392980746
1	738	351.481205399575	2.191319065592
1	740	351.796688229439	1.394543019713
1	744	352.635636737865	0.014409779132
1	748	358.863193651883	0.102177137735
1	752	360.398310510227	0.542725224867
1	756	361.177808599133	0.12845655655
1	760	361.783628058488	0.232044287348
1	764	363.230953715913	1.366709258262
1	768	365.203081299464	0.608232657204
1	772	368.535012201731	0.120485022083
1	776	369.821073986806	0.242483960928
1	788	372.844896191378	2.662741145262
1	794	375.935985192856	5.549423079238
1	796	377.07620505078	6.562352533135
1	798	377.463729577639	6.934024900605
1	802	378.326843265313	7.514544669475
1	806	379.861768562521	6.995741273987
1	810	381.586882114456	6.651480190194
1	814	382.627685973249	4.600773563264
1	816	382.825697540307	3.672316461041
1	818	382.94238114314	2.299546422915
1	820	384.238005182377	1.93147588664
1	824	385.794080199107	0.335070142974
1	830	388.502292612411	1.841852741793
1	832	389.346651461059	1.072821377206
1	836	393.252001028605	0.089123735756
1	844	400.735964468988	2.418581937595
1	848	401.946595210471	2.325360325488
1	850	402.650585539919	2.793434621355
1	852	402.691920463855	1.593280561
1	856	406.938350213552	0.113678309443
1	860	408.457330442998	1.409438497949
1	864	411.364378564565	0.042675362405
1	868	412.061369957224	0.600683139632
1	872	414.301017320587	1.693286124713
1	878	415.504657197736	0.543344923149
1	880	415.715327758034	0.260410644942
1	884	417.591244509731	1.854128107141
1	888	419.380744628323	0.113444573025
1	892	421.219755103828	0.339703476909
1	896	421.633082961399	0.244582715261
1	900	423.661494298883	0.624119781568
1	904	426.923859106398	0.38506029001
1	910	433.602493474874	2.397931184077
1	912	435.14253302724	1.961162978577
1	916	437.567252253543	1.223327873295
1	920	438.8903470611	0.150710631478
1	926	440.760413284132	0.946289574048
1	930	442.667550102053	2.29374521622
1	932	445.241530158041	3.282320844486
1	936	448.221325925124	1.085332624243
1	940	449.216984592006	0.299726956127
1	944	450.462422319013	0.324069020297
1	948	452.825680781387	1.009168361634
1	956	454.230534324442	1.288826917104
1	962	456.9472261194	3.399674851626
1	968	457.653445259794	3.938709099049
1	970	458.199920311609	3.755806647523
1	972	459.349714522334	2.639425746744
1	974	459.417847554793	2.18600365826
1	978	461.826918408766	4.56794177984
1	980	461.954683169418	1.159006292244
1	988	464.105272238812	1.830914955346
1	990	464.934541986995	1.683851405182
1	992	465.786968485893	2.002414637638
1	996	469.712136603996	0.004153643914
1	1000	470.225141474351	0.034086690964
1	1004	471.064711263338	0.531821183415
1	1008	473.160674729081	0.613000929362
1	1012	473.916278048532	0.649420899384
1	1016	478.919226601441	1.143884335299
1	1020	481.286293655415	1.4060540495
1	1028	486.181710392183	1.719167527917
1	1032	487.640159377042	2.647185406154
1	1034	487.945555195253	2.352958326765
1	1038	488.444563159888	2.001724793256
1	1040	489.736805061174	1.385201928316
1	1044	491.205877046273	0.828904232727
1	1048	493.317121018969	0.903321530615
1	1052	494.311028210119	0.490592717264
1	1056	497.502449363566	1.006380472004
1	1060	502.163036035199	2.02338243918
1	1064	504.389846667177	1.054673215455
1	1068	505.127101057946	0.137647301904
1	1072	510.898686744908	0.092925138503
1	1080	512.302418142429	1.13154789417
1	1084	513.443488517964	1.632738448578
1	1088	513.619862896295	1.668332714683
1	1090	514.048608778692	1.218225680814
1	1092	516.043087180742	2.456830022315
1	1100	519.639940512983	1.638158040817
1	1102	520.058299209058	1.695379883076
1	1108	521.082122975265	1.842023957872
1	1114	524.27945390224	4.155128032104
1	1116	525.170311464676	4.438634735592
1	1118	526.015419024001	3.456989615354
1	1130	531.826777591079	8.73117086985
1	1132	532.228729027189	5.345506795576
1	1134	534.157752847036	7.253415766063
1	1136	535.771872660285	8.759732425216
1	1138	536.11615737028	7.483537662269
1	1140	536.702567969488	7.527589141412
1	1144	538.420115256445	0.064776966652
1	1148	540.060992146502	0.383102212946
1	1156	542.52292507019	1.775016203448
1	1158	543.025570561794	1.12646479741
1	1160	543.352457751071	1.359547877017
1	1166	545.979310586228	1.304162110771
1	1170	546.364522346283	0.516876943823
1	1172	546.530035611956	0.34103579078
1	1178	550.775198248941	4.191630946883
1	1182	551.078508535545	0.618448897144
1	1184	552.016603292717	0.993266844106
1	1192	555.066274003586	2.495986768014
1	1198	558.40617726411	5.296262137302
1	1200	558.912373582238	5.69896906616
1	1202	559.352255049372	4.078865569644
1	1204	559.402398055883	3.016038838058
1	1208	561.302909965506	0.08473753414
1	1212	562.060192108748	0.599075026633
1	1220	565.104163700895	2.555149058244
1	1224	566.578842417039	3.625979137022
1	1226	568.011255302211	3.001908957447
1	1230	569.652323257006	4.111476360944
1	1234	569.843670245769	0.239855393698
1	1236	570.218185475594	0.479918253143
1	1240	572.244737815771	0.559311024958
1	1246	574.937371030024	1.960938347238
1	1248	575.942919105327	1.107522916436
1	1252	577.703301135155	1.741793537628
1	1258	581.244632769718	0.687268682634
1	1264	582.118009480986	1.181140973521
1	1268	583.461454003607	1.928030697353
1	1270	583.656262374135	1.665376971077
1	1274	584.619478653159	1.418642107771
1	1278	585.476127651602	1.677746621992
1	1282	587.496646063614	2.728815526112
1	1288	590.081283790514	4.56700586634
1	1292	591.473170169122	3.019888556596
1	1298	593.688196408071	5.233876198573
1	1302	594.816569141166	4.654902165796
1	1308	601.143257804275	8.612710760591
1	1310	601.542300742134	8.015945481458
1	1312	601.694563115059	7.124043423073
1	1314	603.087008185558	6.519869476295
1	1316	605.870347660735	5.57955081853
1	1320	605.969824289151	0.039424613061
1	1324	606.73386749984	0.025507226272
1	1328	607.395514339897	0.195770118043
1	1332	610.343541763148	0.363912395113
1	1340	615.902410712377	4.182998508496
1	1344	619.997773261553	8.253671936655
1	1346	620.960812452559	7.767838273942
1	1350	621.936561527041	2.997922423832
1	1354	625.406581026697	3.580471490707
1	1358	626.257590382738	3.991947446136
1	1360	626.497396422667	0.916214658893
1	1366	628.216793377983	0.143239810708
1	1368	629.659697962518	1.571624275296
1	1372	631.39061074161	0.74933306453
1	1376	634.684904821748	1.700427769116
1	1384	637.528313981238	1.579156346375
1	1388	639.148732190653	2.610507104327
1	1390	639.422040533563	2.712729977972
1	1392	640.587256970228	1.659548147047
1	1398	642.486662433782	0.559954180531
1	1404	644.259472527477	1.776779764236
1	1406	644.888012426895	1.799173259928
1	1408	646.390579044996	2.876491199883
1	1412	648.555109216415	0.089760226854
1	1416	652.047865122669	2.98934242864
1	1422	657.530269655247	0.648414194839
1	1426	659.697364820349	2.272338498323
1	1428	659.786147245353	0.719027898032
1	1432	664.535966781467	2.784371061507
1	1436	667.073775768693	0.378127594666
1	1442	669.054686785154	0.54655985832
1	1444	670.210944556569	1.498844776901
1	1448	670.384726158127	0.09520585032
1	1452	673.838947394339	0.233212883163
1	1456	679.024202835698	0.874695724426
1	1464	681.050525992869	0.486542220748
1	1470	682.110551190407	1.205545121165
1	1474	684.37526282682	3.367037994388
1	1482	685.477959609438	4.244741803819
1	1486	687.650102905552	6.396612750807
1	1496	691.06811008768	8.051967605944
1	1498	691.511633325771	7.085474603969
1	1504	692.265957326868	7.750025063735
1	1506	692.530090584652	7.231235881138
1	1508	692.795432569036	6.29966951735
1	1510	692.803715209064	4.552501906404
1	1512	695.542494727381	6.875185760163
1	1514	696.07679863777	7.239373349487
1	1522	698.390727706456	7.430738382971
1	1524	698.645923872209	7.082425824623
1	1528	699.843260323315	8.059379282988
1	1534	700.353131308543	3.501521732413
1	1536	703.478515574433	6.566875826454
1	1538	704.385124561257	6.647882570685
1	1540	704.543899794637	4.871438398883
1	1542	706.217760873798	6.140195067937
1	1550	709.382463317453	9.191804450509
1	1552	709.443607121949	2.132020066662
1	1554	709.505920309216	1.836665705384
1	1560	711.216457491905	2.718813990319
1	1562	711.671667199523	1.065324564269
1	1564	712.294028713072	1.575504120115
1	1568	715.451684587001	1.479966265093
1	1574	718.114892171595	1.381582341037
1	1576	718.713988437296	1.280957776482
1	1582	721.564649167174	0.333197615025
1	1584	721.71837102731	0.305549905164
1	1590	726.927149179085	2.408877188164
1	1592	727.00955924238	1.767288788546
1	1596	732.952831544258	1.293390085576
1	1600	734.269393485953	0.080865602655
1	1606	737.524152277093	1.108527594462
1	1608	737.586340077419	0.314707412857
1	1612	737.730762685292	0.117943767259
1	1616	740.8898863364	0.645010568838
1	1620	748.553704978657	0.084423336916
1	1624	748.646987953714	0.032474651429
1	1628	754.040932937034	1.020588763432
1	1632	756.301287184262	2.255456060008
1	1638	759.305207015907	0.660162424155
1	1642	761.123272594492	2.428420195778