version 3
run General-16-20221028-09:56:52-16128
attr configname General
attr datetime 20221028-09:56:52
attr datetimef 20221028-095652
attr experiment General
attr inifile simu_1.ini
attr iterationvars ""
attr iterationvarsd ""
attr iterationvarsf ""
attr measurement ""
attr network Rete
attr processid 16128
attr repetition 16
attr replication #16
attr resultdir results
attr runnumber 16
attr seedset 16
config network Rete
config record-eventlog false
config repeat 30
config sim-time-limit 1000s
config simtime-resolution ps
config **.Servente.serviceTime exponential(1s)
config **.Arrivi.interArrivalTime exponential(2s)

vector 0 Rete.Servente queueLength:vector ETV
attr interpolationmode sample-hold
attr recordingmode vector
attr title "queue length"
vector 1 Rete.Pozzo lifeTime:vector ETV
attr interpolationmode none
attr recordingmode vector
attr title "lifetime of arrived jobs"
attr unit s
0	0	0	0
0	8	1.410972959789	1
0	9	2.096445277944	0
0	16	2.448868599834	1
0	17	2.59652157988	0
0	24	5.221046672864	1
0	25	6.053881023234	0
0	72	28.265558250311	1
0	73	28.321852409524	0
0	84	32.463099085266	1
0	86	32.895969803489	2
0	87	33.955155067826	1
0	89	34.276230662394	0
0	92	34.56744918983	1
0	94	34.848264559815	2
0	95	34.914926245509	1
0	98	35.603671931488	2
0	100	35.692026615434	3
0	102	35.813888970944	4
0	103	36.636592335548	3
0	105	36.859131390323	2
0	107	37.642792164446	1
0	110	38.606133300098	2
0	111	39.07467251809	1
0	113	41.218374480467	0
0	116	41.521202146228	1
0	117	42.781161492804	0
0	132	45.412340488376	1
0	133	46.364712951969	0
0	160	65.437860403032	1
0	161	65.860783372604	0
0	164	65.999917595666	1
0	165	67.554376705362	0
0	176	72.310255024506	1
0	177	72.378730421619	0
0	192	79.208188743732	1
0	193	80.088171482486	0
0	200	80.945077224821	1
0	201	81.365088673814	0
0	208	83.868055059928	1
0	209	84.762010891607	0
0	232	95.159998159091	1
0	233	96.228329629749	0
0	244	119.233282164663	1
0	245	119.495274968795	0
0	264	129.389266299656	1
0	265	129.608878129909	0
0	292	156.719516160909	1
0	294	157.06130405054	2
0	295	157.063309207996	1
0	297	157.258397372363	0
0	316	163.112094716715	1
0	317	163.86847392755	0
0	320	164.155373202066	1
0	321	165.911474330177	0
0	324	166.725019112963	1
0	326	167.443550014391	2
0	328	168.65956290116	3
0	329	169.308465440962	2
0	331	169.819996318574	1
0	333	170.011577516983	0
0	340	172.510575495252	1
0	342	172.77578703656	2
0	343	174.112533407931	1
0	345	175.242701509093	0
0	356	182.297611736802	1
0	357	182.928774254487	0
0	360	184.227000134893	1
0	362	185.233654762933	2
0	364	185.449142926291	3
0	365	185.72920514	2
0	368	186.660971345482	3
0	369	189.525202902159	2
0	371	189.966329481229	1
0	373	190.175523602658	0
0	384	194.484183616167	1
0	386	194.950034929186	2
0	387	196.236730307678	1
0	390	197.056441611055	2
0	391	197.347734256999	1
0	393	198.065239822707	0
0	400	202.695603935418	1
0	401	203.149969983375	0
0	404	204.257803370858	1
0	405	205.856935118077	0
0	408	206.090771101155	1
0	409	207.081849846376	0
0	432	225.594846405493	1
0	433	225.650653770869	0
0	444	228.527896747034	1
0	445	229.10805846478	0
0	464	237.355501985129	1
0	465	239.8687039277	0
0	468	240.035388511923	1
0	469	240.284573915406	0
0	472	240.333071495921	1
0	473	240.833761113541	0
0	476	241.894135088515	1
0	477	241.943018967282	0
0	480	242.279719370448	1
0	482	242.319659872564	2
0	483	242.88780843685	1
0	485	243.196339576611	0
0	512	261.30989897352	1
0	513	263.051839519807	0
0	528	273.056204743378	1
0	530	274.316905757961	2
0	531	274.358506431475	1
0	533	274.521981617854	0
0	540	276.778924560397	1
0	541	277.868930192855	0
0	548	281.026527250749	1
0	549	281.103625766359	0
0	556	284.088054791255	1
0	557	285.762753983405	0
0	600	308.865815598716	1
0	602	309.083221481094	2
0	604	309.217050344127	3
0	605	309.221831221993	2
0	608	310.195930305477	3
0	610	310.512689594254	4
0	612	310.711087092705	5
0	614	311.144357471511	6
0	615	311.506655287322	5
0	617	311.759620246098	4
0	619	313.100834464736	3
0	621	314.888181549543	2
0	623	315.009797386661	1
0	626	315.117769796466	2
0	628	316.682546596771	3
0	629	316.985219066911	2
0	632	319.505701801282	3
0	634	319.61491687282	4
0	636	320.182502127677	5
0	637	320.496812046699	4
0	639	321.348780927798	3
0	641	321.474980516767	2
0	643	322.314391509597	1
0	645	323.339530357126	0
0	664	333.122432384341	1
0	666	334.103329622706	2
0	667	335.548732358567	1
0	670	336.072472115572	2
0	672	337.441338283868	3
0	673	337.553114415585	2
0	675	337.758227169837	1
0	678	338.588243129033	2
0	679	339.160695058756	1
0	682	339.572836904028	2
0	683	340.383568745756	1
0	686	341.273394868537	2
0	687	341.449688624914	1
0	689	341.552688651224	0
0	692	343.87210139368	1
0	693	345.953569006099	0
0	700	347.471462919277	1
0	701	347.540245512727	0
0	728	364.506466833124	1
0	729	364.575234075983	0
0	736	366.245173682831	1
0	737	366.449044818723	0
0	752	374.635045270745	1
0	754	375.351729350445	2
0	756	375.770601836194	3
0	757	375.956303371867	2
0	759	375.971044358049	1
0	761	376.512974660606	0
0	792	390.350534989714	1
0	794	392.029527762735	2
0	795	392.195791152372	1
0	798	393.394791217268	2
0	800	394.707504993082	3
0	801	395.459449256112	2
0	803	397.163902137295	1
0	805	397.328092008573	0
0	812	401.348015095965	1
0	813	401.765964576663	0
0	816	401.905452382783	1
0	818	402.496035676817	2
0	819	402.710633825338	1
0	822	403.424899019727	2
0	823	404.878940266629	1
0	826	406.545075107459	2
0	827	406.634329745687	1
0	829	406.772400273603	0
0	852	414.585878573236	1
0	853	415.072113883526	0
0	868	423.268031214145	1
0	869	423.333479060265	0
0	872	423.417409517649	1
0	874	423.472401122083	2
0	875	423.557392676029	1
0	878	424.379896241237	2
0	879	424.509291270595	1
0	881	425.713298748506	0
0	908	439.314312029029	1
0	909	439.670707518088	0
0	924	449.505158725081	1
0	925	449.51400494388	0
0	948	460.609613907287	1
0	950	461.69274857936	2
0	952	462.339997185532	3
0	953	462.528736311666	2
0	956	462.968054587766	3
0	957	463.22424726376	2
0	959	463.224251715725	1
0	961	463.520536320434	0
0	976	470.821052993633	1
0	977	470.821984245935	0
0	992	477.50960970646	1
0	994	478.632914043374	2
0	995	478.647857859842	1
0	997	480.460670150148	0
0	1000	481.359200981239	1
0	1002	481.757735039087	2
0	1003	481.777635894012	1
0	1005	482.378587573658	0
0	1008	484.808770379086	1
0	1009	484.958957066775	0
0	1028	496.728266200328	1
0	1030	497.185780709574	2
0	1031	498.300038527186	1
0	1033	498.485774551272	0
0	1052	510.694611274178	1
0	1054	511.054128744661	2
0	1055	511.706066999271	1
0	1057	515.072822244856	0
0	1064	516.354261747917	1
0	1065	516.649783187901	0
0	1072	517.002044356693	1
0	1073	517.101035015416	0
0	1076	517.879689945418	1
0	1077	518.136057445418	0
0	1080	518.649164931367	1
0	1081	518.7636359547	0
0	1136	550.30006930508	1
0	1137	550.613432457599	0
0	1144	552.234267121819	1
0	1145	552.255736126488	0
0	1156	558.859847336491	1
0	1158	558.995209445285	2
0	1159	560.425610499903	1
0	1161	560.692328540228	0
0	1176	571.440058219221	1
0	1178	573.358084062704	2
0	1179	574.047469156361	1
0	1181	574.218082494469	0
0	1188	577.40047399411	1
0	1190	577.795836132807	2
0	1192	579.108965512836	3
0	1193	579.429325688704	2
0	1196	579.497230569452	3
0	1197	579.534956341829	2
0	1200	579.577626198929	3
0	1201	579.995133063976	2
0	1203	583.250074201496	1
0	1205	583.401132852618	0
0	1244	608.095457673192	1
0	1246	609.358364938617	2
0	1247	609.530424007955	1
0	1249	610.276490087696	0
0	1260	623.867955078483	1
0	1261	623.982314330478	0
0	1276	631.696217170995	1
0	1277	633.127120244745	0
0	1280	636.94709115083	1
0	1282	637.008141655283	2
0	1283	638.341613878344	1
0	1286	638.780619505065	2
0	1287	639.592392657169	1
0	1289	641.407335575788	0
0	1292	641.612731276853	1
0	1293	643.308386249167	0
0	1300	645.412792987385	1
0	1302	645.857318528848	2
0	1303	646.295540883603	1
0	1306	646.744653076055	2
0	1307	647.965094239002	1
0	1309	648.102529580728	0
0	1316	652.158594723321	1
0	1318	652.276203519626	2
0	1320	652.361720885406	3
0	1322	652.501771253849	4
0	1323	652.907750823077	3
0	1325	653.015208277738	2
0	1327	653.37452085967	1
0	1330	653.87721980632	2
0	1331	654.020167897441	1
0	1334	654.18923404272	2
0	1335	654.861066065805	1
0	1337	655.426690608017	0
0	1344	660.167865250604	1
0	1345	660.396190698779	0
0	1352	663.8772641348	1
0	1354	664.033447747178	2
0	1355	664.109765871654	1
0	1358	664.118415662067	2
0	1360	664.911783980224	3
0	1361	665.031183780537	2
0	1364	665.489453396846	3
0	1366	666.441024818409	4
0	1368	668.340720797985	5
0	1370	668.716392494902	6
0	1372	669.461968433312	7
0	1374	669.689789845066	8
0	1376	671.126058084913	9
0	1377	671.627934806672	8
0	1380	671.857981537531	9
0	1381	673.265620093178	8
0	1384	675.129823752158	9
0	1385	676.618454342456	8
0	1387	677.848889764333	7
0	1390	678.113918662503	8
0	1391	679.398312874091	7
0	1394	679.552361019851	8
0	1396	680.018962811942	9
0	1397	680.889835805238	8
0	1400	681.220034964413	9
0	1401	681.355647181187	8
0	1404	682.145111889179	9
0	1405	682.441477631111	8
0	1407	683.330367025581	7
0	1409	683.606601708348	6
0	1411	685.106290375234	5
0	1414	686.639639593553	6
0	1416	686.782910265678	7
0	1417	687.252876049292	6
0	1419	688.895026568161	5
0	1422	689.02527295261	6
0	1423	689.35454981216	5
0	1425	689.984842002538	4
0	1427	690.445484891464	3
0	1429	690.511456242266	2
0	1432	690.524800925791	3
0	1433	690.600701940414	2
0	1435	691.957160668722	1
0	1437	692.388310171276	0
0	1444	695.261632385727	1
0	1445	695.302634431885	0
0	1448	695.504735001438	1
0	1450	695.571235306786	2
0	1451	698.309770670865	1
0	1453	699.398650587437	0
0	1456	699.718129649183	1
0	1457	699.940153991446	0
0	1500	724.005507690739	1
0	1501	726.09644084407	0
0	1516	731.134205711505	1
0	1518	731.431803102039	2
0	1520	731.963999087676	3
0	1522	732.096156154416	4
0	1523	733.258533093898	3
0	1525	734.577517997429	2
0	1527	734.710758834081	1
0	1530	734.772995715852	2
0	1532	735.242465831084	3
0	1533	735.72402446268	2
0	1535	736.178297155783	1
0	1537	736.590067867933	0
0	1540	738.617231648922	1
0	1541	738.796438574326	0
0	1544	739.521758816764	1
0	1545	739.854447577509	0
0	1556	747.800370610348	1
0	1557	748.518751069477	0
0	1576	760.086508893233	1
0	1577	760.509704599746	0
0	1600	771.878525254849	1
0	1601	773.145607235408	0
0	1616	777.527792290639	1
0	1617	778.668087956095	0
0	1620	779.580423930078	1
0	1621	779.860710232942	0
0	1624	779.944183527157	1
0	1625	780.209600231328	0
0	1644	798.531391554085	1
0	1645	798.806585124622	0
0	1656	802.595551005149	1
0	1657	802.965754017949	0
0	1660	803.959913753899	1
0	1661	804.04827528719	0
0	1664	804.179627191433	1
0	1665	804.634375184423	0
0	1668	804.911818570074	1
0	1669	805.305801746639	0
0	1672	805.46780115114	1
0	1673	806.268203732979	0
0	1676	806.38229785838	1
0	1678	807.755955580732	2
0	1680	808.723340736947	3
0	1682	810.855681472992	4
0	1683	811.058182966829	3
0	1685	811.625222154725	2
0	1687	811.836090301205	1
0	1690	815.76666636505	2
0	1692	816.315245711532	3
0	1693	816.99549905742	2
0	1695	818.433057643145	1
0	1697	818.805441754901	0
0	1700	818.977543390558	1
0	1701	819.242597440313	0
0	1712	821.369996923017	1
0	1713	821.969928517089	0
0	1724	828.500342067159	1
0	1726	829.816454312509	2
0	1727	829.975894447294	1
0	1729	831.566591684706	0
0	1744	837.257707788911	1
0	1745	837.956954477855	0
0	1756	842.644279662865	1
0	1758	844.193317341455	2
0	1759	846.336164202216	1
0	1761	846.343548115678	0
0	1800	865.322952179484	1
0	1801	866.92156371979	0
0	1812	875.368591140616	1
0	1814	876.855008674428	2
0	1816	877.600258758208	3
0	1817	877.617717513009	2
0	1820	878.166796864902	3
0	1821	878.375698799575	2
0	1823	880.050586030515	1
0	1825	880.488230768732	0
0	1828	881.108643093366	1
0	1829	882.929574177672	0
0	1856	900.593875197681	1
0	1857	901.319878064555	0
0	1868	914.74452429213	1
0	1869	914.752257736568	0
0	1872	915.338437068608	1
0	1874	915.380763391568	2
0	1876	917.939923153043	3
0	1878	918.896301114811	4
0	1880	919.95809215469	5
0	1882	920.032939999163	6
0	1883	920.295589617996	5
0	1886	920.353508052538	6
0	1887	920.477936152428	5
0	1889	921.012115225447	4
0	1892	921.135436243123	5
0	1894	921.545561129006	6
0	1895	922.6980066412	5
0	1898	922.765898729834	6
0	1899	923.684772980721	5
0	1901	924.220818347882	4
0	1903	925.247108929334	3
0	1906	926.164882769123	4
0	1907	926.276595292375	3
0	1909	927.516415946695	2
0	1911	927.794678793739	1
0	1914	928.526077650365	2
0	1916	928.650070056597	3
0	1917	931.228227717953	2
0	1919	931.330296680226	1
0	1921	931.544475555028	0
0	1924	932.355166437844	1
0	1925	932.880718995423	0
0	1948	950.319564470721	1
0	1949	950.442895791226	0
0	1956	951.418638834012	1
0	1958	951.806748203699	2
0	1960	951.916661666295	3
0	1962	953.019016400519	4
0	1963	953.41148253866	3
0	1965	953.63480968762	2
0	1967	953.679922219041	1
0	1969	953.81105805493	0
0	1984	959.698776618353	1
0	1986	960.142257240498	2
0	1987	961.329438755988	1
0	1989	962.400807300209	0
0	2016	980.838817044684	1
0	2017	980.875870211957	0
0	2020	982.457991244073	1
0	2021	984.874226754778	0
0	2028	987.227109754272	1
0	2029	987.655333619323	0
0	2052	999.380346914385	1
1	4	1.2459605281	0.740581292877
1	10	2.096445277944	0.800067700202
1	12	2.143119729341	0.732146769552
1	18	2.59652157988	0.447426559871
1	20	2.848940687203	0.400072087369
1	26	6.053881023234	1.167082241928
1	28	6.232686477732	1.011639804868
1	32	7.415575830194	0.072920069745
1	36	14.190250130976	2.830401916339
1	40	15.91192416182	0.829382520858
1	44	17.477423410397	0.081201744495
1	48	19.053786687596	1.282440822068
1	52	19.74828377445	0.172512433763
1	56	21.523755253747	0.28805721497
1	60	24.179248005106	0.347414040678
1	64	25.892468039051	1.192738531432
1	68	27.806438981863	0.624113944877
1	74	28.321852409524	0.242150727749
1	76	28.913935555453	0.648377305142
1	80	29.131157538809	0.12883244943
1	88	33.955155067826	2.497226324187
1	90	34.276230662394	1.813131577128
1	96	34.914926245509	2.01895644202
1	104	36.636592335548	2.069143145718
1	106	36.859131390323	2.010866830508
1	108	37.642792164446	2.039120232958
1	112	39.07467251809	3.382645902656
1	114	41.218374480467	5.404485509523
1	118	42.781161492804	4.175028192706
1	120	42.856123624705	1.334921478477
1	124	43.99302930079	1.077974234465
1	128	44.175303267558	0.0547723311
1	134	46.364712951969	1.155260263909
1	136	46.950533272332	1.538192783956
1	140	48.254019936677	0.631104544114
1	144	52.225770952462	1.081930200249
1	148	54.219226286095	1.171075341248
1	152	61.799614110633	0.305614550704
1	156	64.146574045353	0.011545326199
1	162	65.860783372604	1.475319888927
1	166	67.554376705362	2.11651630233
1	168	67.704782942822	1.704865347156
1	172	69.709630013826	0.862765959718
1	178	72.378730421619	0.416537582003
1	180	72.642976594226	0.33272156972
1	184	75.576632751738	0.221449684751
1	188	75.960858313807	0.316754985374
1	194	80.088171482486	3.76587990699
1	196	80.330789662698	1.122600918966
1	202	81.365088673814	0.440689382718
1	204	81.383660007632	0.438582782811
1	210	84.762010891607	0.959172839859
1	212	85.023902271309	1.155847211381
1	216	87.253954078562	1.356159940925
1	220	88.974307783635	0.877671669587
1	224	89.635433294946	0.544905736631
1	228	91.9419942082	1.235301230332
1	234	96.228329629749	3.577177759164
1	236	97.889266733042	2.729268573951
1	240	110.296647815999	0.563269009293
1	246	119.495274968795	3.163644498027
1	248	119.544211143827	0.310928979164
1	252	123.010282804926	1.319689719677
1	256	126.289907614198	1.125982800375
1	260	127.055980234498	0.748670820304
1	266	129.608878129909	0.836988562731
1	268	130.892418269184	1.503151969528
1	272	132.343718150006	1.147603027365
1	276	136.238210274072	1.586271709003
1	280	137.840057468659	0.119736157022
1	284	145.130827928738	0.222097380876
1	288	148.043643182084	1.277688352628
1	296	157.063309207996	0.500656377069
1	298	157.258397372363	0.538881211454
1	300	157.424978292909	0.363674242369
1	304	157.99586649224	0.10599850756
1	308	159.292754551154	0.522977677746
1	312	162.315115350254	0.874466356181
1	318	163.86847392755	1.349848733
1	322	165.911474330177	2.799379613462
1	330	169.308465440962	5.153092238896
1	332	169.819996318574	3.094977205611
1	334	170.011577516983	2.568027502592
1	336	170.366738795358	1.707175894198
1	344	174.112533407931	1.762356424027
1	346	175.242701509093	2.732126013841
1	348	176.695719923171	3.919932886611
1	352	177.658912087506	0.07076027689
1	358	182.928774254487	0.931471669829
1	366	185.72920514	3.431593403198
1	370	189.525202902159	5.298202767266
1	372	189.966329481229	4.732674718296
1	374	190.175523602658	4.726380676367
1	376	191.237381196869	4.576409851387
1	380	192.020795637973	0.131003970014
1	388	196.236730307678	3.253265306543
1	392	197.347734256999	2.863550640832
1	394	198.065239822707	3.115204893521
1	396	200.460239700795	3.40379808974
1	402	203.149969983375	0.574489527996
1	406	205.856935118077	3.161331182659
1	410	207.081849846376	2.824046475518
1	412	207.392645841301	1.301874740146
1	416	207.932466173739	0.198166095591
1	420	210.86509477	1.065816076812
1	424	218.459208956602	1.726127989472
1	428	223.228449843362	2.384976640127
1	434	225.650653770869	0.983969428466
1	436	225.828313264183	0.23346685869
1	440	228.177327794766	0.330793066819
1	446	229.10805846478	0.887239515619
1	448	229.226559837479	0.698663090445
1	452	229.734996234445	0.31405655265
1	456	232.980411942013	0.00198637314
1	460	236.256610363295	2.268796191982
1	466	239.8687039277	2.663948995405
1	470	240.284573915406	2.929071930277
1	474	240.833761113541	0.798372601618
1	478	241.943018967282	1.609947471361
1	484	242.88780843685	0.993673348335
1	486	243.196339576611	0.916620206163
1	488	243.903713086721	1.584053214157
1	492	245.490500671119	1.007784648333
1	496	246.01118566775	0.114559639536
1	500	250.850856488651	3.020039618553
1	504	251.707318239864	0.034003117913
1	508	256.742157429002	0.102042660054
1	514	263.051839519807	1.876969467609
1	516	263.999540302868	2.689641329348
1	520	268.994344669916	1.204477779886
1	524	272.44321455553	0.799085925555
1	532	274.358506431475	1.668134396212
1	534	274.521981617854	1.465776874476
1	536	274.741976613699	0.425070855738
1	542	277.868930192855	1.484227698833
1	544	278.291446175488	1.512521615091
1	550	281.103625766359	1.899858621427
1	552	281.521110035327	0.494582784578
1	558	285.762753983405	3.567250739911
1	560	286.015621922611	1.927567131356
1	564	289.674676604196	1.017216470969
1	568	291.786717137567	0.147754512742
1	572	293.309266467055	0.138571590787
1	576	295.395180931524	1.053473724992
1	580	296.871114616123	1.263780886133
1	584	299.694839916495	0.104791759478
1	588	305.765686129447	0.861626575858
1	592	306.758926694686	0.535345166876
1	596	307.76664311442	0.145240805261
1	606	309.221831221993	0.729010362595
1	616	311.506655287322	2.640839688606
1	618	311.759620246098	2.676398765004
1	620	313.100834464736	3.883784120609
1	622	314.888181549543	4.692251244066
1	624	315.009797386661	4.497107792407
1	630	316.985219066911	6.274131974206
1	638	320.496812046699	9.352454575188
1	640	321.348780927798	6.231011131332
1	642	321.474980516767	4.792433919996
1	644	322.314391509597	2.808689708315
1	646	323.339530357126	3.724613484306
1	648	323.757309768134	3.574807640457
1	652	327.121921761525	0.125253361277
1	656	328.347488321529	0.786367547218
1	660	331.901111844201	0.839017141203
1	668	335.548732358567	2.459704097402
1	674	337.553114415585	4.430682031244
1	676	337.758227169837	3.654897547131
1	680	339.160695058756	3.088222943184
1	684	340.383568745756	2.942230461888
1	688	341.449688624914	2.861445495881
1	690	341.552688651224	1.979851747196
1	694	345.953569006099	4.680174137562
1	696	346.16650062719	2.29439923351
1	702	347.540245512727	1.117746174826
1	704	348.076959722377	0.6054968031
1	708	351.112359179931	1.011998482667
1	712	356.151751998915	0.005988257617
1	716	357.818215733604	1.321614354968
1	720	362.586170731573	1.74125910755
1	724	363.327352935236	0.046894311663
1	730	364.575234075983	0.440588626604
1	732	364.824238713404	0.31777188028
1	738	366.449044818723	1.046525462886
1	740	366.539415299502	0.294241616671
1	744	368.853558195531	0.41412307171
1	748	371.891128936101	1.074626603785
1	758	375.956303371867	1.774399459596
1	760	375.971044358049	1.335999087304
1	762	376.512974660606	1.161245310161
1	764	376.763067001616	0.992465165422
1	768	380.708474532031	1.514324782985
1	772	381.03426323637	0.004092722465
1	776	382.575376243561	1.170927615239
1	780	382.987013392794	0.235459594739
1	784	384.869143816813	1.764581174373
1	788	388.281186549277	1.649837896893
1	796	392.195791152372	2.838740539737
1	802	395.459449256112	5.108914266398
1	804	397.163902137295	5.13437437456
1	806	397.328092008573	3.933300791305
1	808	398.14862113474	3.441116141658
1	814	401.765964576663	1.785349624511
1	820	402.710633825338	1.362618729373
1	824	404.878940266629	2.973487883846
1	828	406.634329745687	4.13829406887
1	830	406.772400273603	3.347501253876
1	832	407.97126678111	1.426191673651
1	836	408.347111546923	0.061600664209
1	840	409.972711646784	0.209814160486
1	844	411.442519852729	0.50780689882
1	848	413.003550220549	1.33580189599
1	854	415.072113883526	0.803446311017
1	856	415.347480409165	0.761601835929
1	860	421.374169057204	2.402507563272
1	864	422.946779422116	0.025531140765
1	870	423.333479060265	0.343434272374
1	876	423.557392676029	0.289361461884
1	880	424.509291270595	1.091881752946
1	882	425.713298748506	2.240897626423
1	884	426.872056177584	2.492159936347
1	888	428.849731831291	0.150519453367
1	892	429.792126058627	0.207706203591
1	896	434.729015692189	0.040803621237
1	900	435.528400040231	0.211988446001
1	904	436.863685644049	0.19721306229
1	910	439.670707518088	0.3740643747
1	912	440.655089012769	1.34077698374
1	916	443.597516146639	1.263526176675
1	920	448.152833099586	0.14011125995
1	926	449.51400494388	0.779138890413
1	928	451.31966462184	1.814505896759
1	932	451.891906822845	0.452174932823
1	936	452.735825929328	0.821986691835
1	940	454.942326306431	0.739371704107
1	944	457.285287955782	0.840198028406
1	954	462.528736311666	2.331610642343
1	958	463.22424726376	2.614633356473
1	960	463.224251715725	1.531503136365
1	962	463.520536320434	1.180539134902
1	964	463.56359462555	0.595540037784
1	968	464.087429454165	0.379133598899
1	972	465.804642349988	0.897305550189
1	978	470.821984245935	0.027966145966
1	980	471.314207559674	0.493154566041
1	984	474.053142607056	1.476149074295
1	988	475.925303221726	0.005480174967
1	996	478.647857859842	1.786611793479
1	998	480.460670150148	2.951060443688
1	1004	481.777635894012	3.144721850638
1	1006	482.378587573658	1.019386592419
1	1010	484.958957066775	3.201222027688
1	1012	485.824534609065	1.015764229979
1	1016	490.066927171689	0.165445092955
1	1020	491.666229481143	1.249928538689
1	1024	493.255876017297	0.445179103922
1	1032	498.300038527186	2.302375259164
1	1034	498.485774551272	1.757508350944
1	1036	499.705788002213	2.520007292639
1	1040	500.994006560932	0.135162216891
1	1044	504.798670094249	0.478030141868
1	1048	509.467718662238	0.506852772987
1	1056	511.706066999271	1.972817330165
1	1058	515.072822244856	4.378210970678
1	1060	515.750698129882	4.696569385221
1	1066	516.649783187901	0.8102020368
1	1068	516.694317822808	0.340056074891
1	1074	517.101035015416	0.184389980976
1	1078	518.136057445418	1.134013088725
1	1082	518.7636359547	0.883946009282
1	1084	518.834542673795	0.185377742428
1	1088	520.216539507023	0.109253684465
1	1092	521.661496975633	0.106867222727
1	1096	522.210389178543	0.394486776451
1	1100	528.919364089176	0.900176594181
1	1104	531.623281239436	1.63798573688
1	1108	534.486868703099	1.349707893924
1	1112	534.923423702562	0.404643763229
1	1116	535.145909869724	0.075817257028
1	1120	536.659018294119	0.072539241485
1	1124	540.7681026346	0.172941029156
1	1128	542.506064034606	0.869247412298
1	1132	547.407644845109	0.353375361966
1	1138	550.613432457599	0.982319094449
1	1140	550.692033834503	0.391964529423
1	1146	552.255736126488	1.045535526286
1	1148	552.582395908798	0.348128786979
1	1152	552.755313731449	0.161128236045
1	1160	560.425610499903	3.249271852542
1	1162	560.692328540228	1.832481203737
1	1164	560.81168930484	1.816479859555
1	1168	563.173959781294	0.509107207745
1	1172	563.876132311443	0.073951005182
1	1180	574.047469156361	2.753044941597
1	1182	574.218082494469	2.778024275248
1	1184	575.082295994257	1.724211931553
1	1194	579.429325688704	2.67280286517
1	1198	579.534956341829	2.134482347719
1	1202	579.995133063976	2.199296931169
1	1204	583.250074201496	4.14110868866
1	1206	583.401132852618	3.903902283166
1	1208	583.427378792728	3.849752593799
1	1212	585.899869001322	0.535889387745
1	1216	586.352478427648	0.282032865688
1	1220	586.884528039146	0.101393905786
1	1224	589.991701932356	0.970892022455
1	1228	596.210884375681	0.144912857458
1	1232	600.282977306605	0.061297510014
1	1236	602.423112319858	0.229082504399
1	1240	604.150274234808	0.186267920557
1	1248	609.530424007955	1.530817182645
1	1250	610.276490087696	2.181032414504
1	1252	610.417006572191	1.058641633574
1	1256	616.343303228554	0.274415271712
1	1262	623.982314330478	0.180129423494
1	1264	624.853013056446	0.985057977963
1	1268	625.024393577345	0.068447204061
1	1272	627.657978624991	0.288546794591
1	1278	633.127120244745	3.150182438454
1	1284	638.341613878344	6.645396707349
1	1288	639.592392657169	2.645301506339
1	1290	641.407335575788	4.399193920505
1	1294	643.308386249167	4.527766744102
1	1296	643.578379553105	1.965648276252
1	1304	646.295540883603	1.256746122514
1	1308	647.965094239002	2.552301251617
1	1310	648.102529580728	2.24521105188
1	1312	650.35660447122	3.611951395165
1	1324	652.907750823077	1.811526879917
1	1326	653.015208277738	0.856613554417
1	1328	653.37452085967	1.098317340044
1	1332	654.020167897441	1.658447012035
1	1336	654.861066065805	2.359294811956
1	1338	655.426690608017	1.549470801697
1	1340	655.534356899631	1.345122856911
1	1346	660.396190698779	0.327721358778
1	1348	660.707073590318	0.539208339714
1	1356	664.109765871654	0.333410078478
1	1362	665.031183780537	1.153919645737
1	1378	671.627934806672	7.594487059494
1	1382	673.265620093178	9.147204431111
1	1386	676.618454342456	11.706670362232
1	1388	677.848889764333	12.359436367487
1	1392	679.398312874091	12.957288055682
1	1398	680.889835805238	12.549115007253
1	1402	681.355647181187	12.639254686285
1	1406	682.441477631111	12.979509197799
1	1408	683.330367025581	13.640577180515
1	1410	683.606601708348	12.480543623435
1	1412	685.106290375234	13.248308837703
1	1418	687.252876049292	12.123052297134
1	1420	688.895026568161	10.781107905658
1	1424	689.35454981216	9.802188792309
1	1426	689.984842002538	9.965879190596
1	1428	690.445484891464	9.225449927051
1	1430	690.511456242266	8.366344353087
1	1434	690.600701940414	3.961062346861
1	1436	691.957160668722	5.174250403044
1	1438	692.388310171276	3.363037218666
1	1440	692.923099711136	2.398298785345
1	1446	695.302634431885	0.295917008942
1	1452	698.309770670865	3.048138285138
1	1454	699.398650587437	3.893915585999
1	1458	699.940153991446	4.36891868466
1	1460	701.213110615909	1.494980966726
1	1464	704.302126872078	0.845155356999
1	1468	705.267754060062	0.26898123659
1	1472	709.673759343076	0.070377560186
1	1476	711.188459126243	0.750779984022
1	1480	713.763239140501	0.177212998321
1	1484	716.591605962023	1.350215634122
1	1488	717.883155024016	0.145264749185
1	1492	719.97110773328	0.451646612825
1	1496	723.531612959951	0.6270926648
1	1502	726.09644084407	2.145895268329
1	1504	727.265133040393	3.259625349654
1	1508	729.62991504173	0.464889072595
1	1512	730.555303329237	0.322474517331
1	1524	733.258533093898	2.522884509426
1	1526	734.577517997429	3.443312285924
1	1528	734.710758834081	3.278955732042
1	1534	735.72402446268	3.760025375004
1	1536	736.178297155783	4.082141001367
1	1538	736.590067867933	1.817072152081
1	1542	738.796438574326	3.553972743242
1	1546	739.854447577509	1.237215928587
1	1548	742.86104879296	3.339289976196
1	1552	747.442402554123	0.055817799562
1	1558	748.518751069477	0.801397024068
1	1560	748.905267652267	1.104897041919
1	1564	753.548180602615	0.776027460823
1	1568	754.888899862647	0.378477543244
1	1572	757.55495765743	0.54283667413
1	1578	760.509704599746	1.562092955362
1	1580	760.579146154104	0.492637260871
1	1584	762.318262083532	1.560203384575
1	1588	764.231217007546	1.41498835413
1	1592	765.987675383725	0.899984976165
1	1596	769.812133926211	0.154990207711
1	1602	773.145607235408	1.337050421373
1	1604	773.464583187103	1.586057932254
1	1608	775.030487644493	1.10527310612
1	1612	776.581421110777	0.601623423536
1	1618	778.668087956095	1.271843892643
1	1622	779.860710232942	2.332917942303
1	1626	780.209600231328	0.62917630125
1	1628	780.799097088878	0.854913561721
1	1632	784.681580038835	0.430407607438
1	1636	787.476882681636	0.07554280746
1	1640	790.495597460546	0.101280096774
1	1646	798.806585124622	0.397622251436
1	1648	799.051485508328	0.520093954243
1	1652	800.723771005613	0.302148999101
1	1658	802.965754017949	0.616372367313
1	1662	804.04827528719	1.452724282041
1	1666	804.634375184423	0.674461430524
1	1670	805.305801746639	1.126174555206
1	1674	806.268203732979	1.356385162905
1	1684	811.058182966829	5.590381815689
1	1686	811.625222154725	5.242924296345
1	1688	811.836090301205	4.080134720473
1	1694	816.99549905742	8.272158320473
1	1696	818.433057643145	7.577376170153
1	1698	818.805441754901	3.038775389851
1	1702	819.242597440313	2.927351728781
1	1704	819.276656457586	0.299113067028
1	1708	820.130575438548	0.137862718424
1	1714	821.969928517089	1.215863592722
1	1716	822.565856528311	1.195859605294
1	1720	826.77460778357	0.597616949126
1	1728	829.975894447294	1.829110106718
1	1730	831.566591684706	3.066249617547
1	1732	831.89765145074	2.081197138231
1	1736	832.165274745637	0.061629183734
1	1740	833.920989769023	0.350838323249
1	1746	837.956954477855	1.285857376072
1	1748	838.801099975587	1.543392186676
1	1752	841.778021711694	1.068357022166
1	1760	846.336164202216	3.949794894962
1	1762	846.343548115678	3.699268452813
1	1764	848.098464481245	3.90514713979
1	1768	849.201957735714	0.591456244901
1	1772	851.193705402842	0.525181585243
1	1776	852.946519240375	1.249127347752
1	1780	854.689018411741	0.435673945411
1	1784	859.315037333701	1.82943017532
1	1788	860.520267238244	0.487724399148