version 3
run General-27-20221028-09:56:53-16128
attr configname General
attr datetime 20221028-09:56:53
attr datetimef 20221028-095653
attr experiment General
attr inifile simu_1.ini
attr iterationvars ""
attr iterationvarsd ""
attr iterationvarsf ""
attr measurement ""
attr network Rete
attr processid 16128
attr repetition 27
attr replication #27
attr resultdir results
attr runnumber 27
attr seedset 27
config network Rete
config record-eventlog false
config repeat 30
config sim-time-limit 1000s
config simtime-resolution ps
config **.Servente.serviceTime exponential(1s)
config **.Arrivi.interArrivalTime exponential(2s)

vector 0 Rete.Servente queueLength:vector ETV
attr interpolationmode sample-hold
attr recordingmode vector
attr title "queue length"
vector 1 Rete.Pozzo lifeTime:vector ETV
attr interpolationmode none
attr recordingmode vector
attr title "lifetime of arrived jobs"
attr unit s
0	0	0	0
0	4	2.420219336988	1
0	5	2.794433212065	0
0	12	8.610621101581	1
0	13	9.373534230112	0
0	16	9.581547763549	1
0	17	9.857037817521	0
0	20	10.27739479674	1
0	21	13.742254827416	0
0	24	13.95471113311	1
0	25	15.978999254186	0
0	36	21.095238364826	1
0	37	21.150576890402	0
0	40	23.094436470923	1
0	41	23.32918895317	0
0	44	23.951476028915	1
0	45	25.281206708552	0
0	52	27.368270399046	1
0	54	28.251529860656	2
0	56	28.664977658603	3
0	58	28.667893178043	4
0	59	29.399769988407	3
0	62	29.455658232647	4
0	63	29.469535042158	3
0	65	29.699874398997	2
0	68	30.389076166425	3
0	69	31.278361392962	2
0	71	31.44212847882	1
0	73	31.628231766092	0
0	88	41.974292214549	1
0	89	43.502399352966	0
0	92	43.642329737347	1
0	93	43.680218474043	0
0	100	46.130223483612	1
0	101	46.797553759562	0
0	108	56.149820323869	1
0	109	56.650426340181	0
0	124	61.049696066287	1
0	125	61.891450253421	0
0	128	62.798620406277	1
0	129	63.784810273422	0
0	140	72.012857906895	1
0	141	72.547652115432	0
0	148	74.125979811214	1
0	150	74.396860151468	2
0	152	74.555026580103	3
0	153	74.992203539838	2
0	155	75.117173882542	1
0	157	75.349100785252	0
0	160	77.22017790837	1
0	161	78.744286184069	0
0	180	88.507807154417	1
0	181	88.851522143111	0
0	184	89.735489997469	1
0	186	89.927755599974	2
0	187	90.070900562802	1
0	189	90.376775954513	0
0	192	90.906557807974	1
0	193	91.599910873879	0
0	196	92.684386005329	1
0	197	94.16790992293	0
0	212	100.699798527489	1
0	213	102.315334373308	0
0	220	109.007124445801	1
0	221	109.081038192582	0
0	224	109.170936963894	1
0	225	109.987908346146	0
0	232	114.619106274987	1
0	233	115.287368706325	0
0	248	122.838638448562	1
0	250	123.061130125168	2
0	252	123.320568438172	3
0	253	124.959855868095	2
0	255	126.086316342508	1
0	257	126.622679899126	0
0	272	142.049518587418	1
0	273	142.071206016757	0
0	280	147.718312194118	1
0	282	147.851419024453	2
0	284	148.072522688258	3
0	285	148.196160346996	2
0	288	148.229176127785	3
0	289	149.314322018903	2
0	292	149.352837604811	3
0	293	151.35103253425	2
0	296	151.692453900493	3
0	297	152.174351234023	2
0	299	152.804746076776	1
0	302	154.551347333657	2
0	304	154.581753140701	3
0	305	155.481079369324	2
0	307	155.980658391477	1
0	310	156.163303706281	2
0	312	156.635577838447	3
0	313	157.658190219564	2
0	315	157.893302464127	1
0	317	158.105261988829	0
0	320	158.510522591488	1
0	321	158.608655028156	0
0	324	158.954697871832	1
0	326	159.808664302412	2
0	328	160.240275716281	3
0	330	161.112153527178	4
0	331	162.556461579638	3
0	333	163.515234041728	2
0	335	164.13076298941	1
0	337	164.455013340032	0
0	360	174.699718266365	1
0	361	175.963587473068	0
0	364	176.478321107548	1
0	366	176.610003991003	2
0	368	176.682122962948	3
0	370	176.770487328724	4
0	371	178.989942644354	3
0	373	180.383166968783	2
0	375	181.727977721607	1
0	377	183.387503335669	0
0	392	191.313948027101	1
0	393	192.244814386316	0
0	400	194.237979402909	1
0	402	194.951980114545	2
0	404	195.946705604749	3
0	405	196.773158448903	2
0	408	198.80637372853	3
0	409	199.57398708885	2
0	411	200.22249077137	1
0	414	200.440912423944	2
0	415	201.430138224884	1
0	417	201.722565403336	0
0	424	205.201051372504	1
0	425	205.63448643927	0
0	436	209.706764031845	1
0	437	210.374644918893	0
0	440	210.432073311747	1
0	442	210.766574401736	2
0	443	211.184468138109	1
0	446	211.238341785023	2
0	447	211.757953567479	1
0	449	211.981356265168	0
0	456	217.720634368324	1
0	458	217.878783588547	2
0	459	218.186795402044	1
0	461	219.151173427	0
0	464	220.442092520577	1
0	466	221.531227285297	2
0	467	222.090438365121	1
0	470	222.278219438583	2
0	472	222.513670667266	3
0	473	222.790821672679	2
0	476	223.08081569678	3
0	477	224.091718157816	2
0	479	224.468885562982	1
0	482	225.08554913091	2
0	484	225.892675808403	3
0	486	226.338526139802	4
0	487	226.361764581511	3
0	490	226.461737434125	4
0	492	226.864710209611	5
0	493	228.939770865619	4
0	495	229.202170618088	3
0	497	229.438600508308	2
0	499	229.474042196399	1
0	501	229.576640295108	0
0	512	237.488390983989	1
0	514	238.421915377825	2
0	515	238.453028174816	1
0	517	239.290840064763	0
0	520	240.374659710833	1
0	521	240.592877002841	0
0	544	253.325521022629	1
0	545	253.49475142901	0
0	548	255.603462404171	1
0	550	255.763925401494	2
0	551	256.226415364266	1
0	553	256.604022407274	0
0	568	265.058109829395	1
0	570	265.080367823668	2
0	571	266.657374024695	1
0	573	266.972478012988	0
0	596	286.264086987982	1
0	598	286.412273415671	2
0	599	286.600458896288	1
0	601	286.819530599552	0
0	616	307.480916694352	1
0	618	307.510152292824	2
0	619	307.802387260836	1
0	621	307.943916231341	0
0	624	308.003265199356	1
0	625	309.624402814968	0
0	652	323.807740167065	1
0	654	323.899220980536	2
0	655	324.25924614795	1
0	657	324.920388718402	0
0	660	326.73806525375	1
0	662	327.590676709954	2
0	663	327.989349165588	1
0	665	329.03790035753	0
0	684	341.293521509791	1
0	685	342.363106382484	0
0	712	373.328141275328	1
0	713	374.013242747694	0
0	728	389.49071398211	1
0	729	390.388707938023	0
0	732	390.691608028723	1
0	733	392.161007950832	0
0	752	405.020968629482	1
0	753	407.554809652237	0
0	768	421.849358383292	1
0	769	424.622272859681	0
0	772	425.588352361253	1
0	774	425.707870184324	2
0	775	426.026976098715	1
0	777	426.46755291235	0
0	804	442.667656552036	1
0	806	444.541951355336	2
0	807	445.142111542794	1
0	809	446.12589378156	0
0	816	448.240943265115	1
0	818	449.293207702646	2
0	819	451.431906651023	1
0	821	452.934421659386	0
0	832	456.234669762792	1
0	834	456.526656103651	2
0	836	457.215435760201	3
0	838	457.358554784426	4
0	839	457.500427248801	3
0	841	460.955170572555	2
0	843	461.004703039443	1
0	846	461.88524337578	2
0	848	462.179915330884	3
0	849	462.825357924687	2
0	851	463.589258135735	1
0	853	464.402493374764	0
0	880	481.260791272987	1
0	881	483.03172558995	0
0	892	489.280275820853	1
0	894	489.326787573715	2
0	895	490.233123522035	1
0	897	491.629748444087	0
0	904	495.331429052979	1
0	906	496.178241929532	2
0	908	496.226406895296	3
0	910	497.116837957901	4
0	911	498.890317716008	3
0	913	498.891258283639	2
0	915	500.147612838812	1
0	918	502.560964121768	2
0	919	504.969185917039	1
0	922	505.933646236454	2
0	923	506.559732741316	1
0	926	507.081366288306	2
0	927	508.673993675164	1
0	929	508.754364428659	0
0	956	526.335257136583	1
0	957	528.223410103818	0
0	960	528.258731255372	1
0	962	528.723704943895	2
0	963	528.908736798554	1
0	965	528.925290641141	0
0	972	530.696432150857	1
0	973	531.391412267119	0
0	988	542.668618166637	1
0	990	543.341334732341	2
0	991	543.484485939659	1
0	993	546.071634408034	0
0	1008	556.343555153511	1
0	1009	556.450020329225	0
0	1012	556.541273481629	1
0	1013	557.65852101281	0
0	1044	583.105055503617	1
0	1045	583.743666735601	0
0	1068	601.865726110616	1
0	1069	602.010970369051	0
0	1072	603.788502338685	1
0	1073	604.630389078836	0
0	1084	611.2426157928	1
0	1085	611.598753148581	0
0	1092	613.083279684442	1
0	1093	613.627168616328	0
0	1104	618.423998428799	1
0	1105	619.947846833197	0
0	1120	629.978658030139	1
0	1121	630.642368773429	0
0	1128	637.012557399306	1
0	1129	638.329171059288	0
0	1144	655.032624302912	1
0	1145	655.477822788333	0
0	1148	656.049717778238	1
0	1150	656.159952927204	2
0	1152	657.382810076747	3
0	1153	657.855609928845	2
0	1156	657.942629645204	3
0	1157	659.87759444413	2
0	1160	661.202960389976	3
0	1161	661.964663635453	2
0	1163	662.631577029779	1
0	1165	663.044187692075	0
0	1192	678.329627947543	1
0	1193	678.511604912051	0
0	1204	686.556869021016	1
0	1206	686.786814872511	2
0	1207	687.674679247434	1
0	1209	687.826862221256	0
0	1220	692.031671589778	1
0	1221	692.408155461539	0
0	1232	699.168887392531	1
0	1234	699.7862148666	2
0	1236	701.471161383593	3
0	1238	701.838329525173	4
0	1239	701.905336618096	3
0	1242	702.210085055498	4
0	1244	702.540980264414	5
0	1245	703.272421589025	4
0	1247	703.289351291128	3
0	1250	703.572965735674	4
0	1252	703.838958140345	5
0	1253	704.32850270359	4
0	1256	704.456989514004	5
0	1257	705.449799155665	4
0	1259	706.184138807248	3
0	1261	706.752260293297	2
0	1263	707.983044995831	1
0	1265	708.060291432048	0
0	1268	708.935546782181	1
0	1270	709.403164838272	2
0	1272	711.239653214398	3
0	1273	711.910415144222	2
0	1275	711.942384000663	1
0	1277	712.310696419742	0
0	1284	715.26562328186	1
0	1286	715.712053938347	2
0	1287	716.589458989362	1
0	1289	718.378361754137	0
0	1308	725.597422756782	1
0	1309	725.914872650006	0
0	1312	726.236586052608	1
0	1313	727.156848961922	0
0	1316	728.482611215084	1
0	1318	728.939696140388	2
0	1319	729.425042695388	1
0	1321	729.662430007687	0
0	1324	730.518479058244	1
0	1326	731.135586545502	2
0	1327	732.025190267795	1
0	1329	732.801608863184	0
0	1332	733.106249433156	1
0	1334	734.326314354949	2
0	1335	734.695665421522	1
0	1338	737.861199254332	2
0	1339	739.396478207372	1
0	1341	740.752717740951	0
0	1348	745.871038209552	1
0	1350	745.997746652081	2
0	1351	746.307655514917	1
0	1353	746.438415816943	0
0	1356	748.091509544033	1
0	1357	748.531366659972	0
0	1400	783.672707671845	1
0	1401	784.714550148592	0
0	1404	784.736307933885	1
0	1405	784.752835382914	0
0	1436	802.527756609951	1
0	1437	802.925971395441	0
0	1452	807.945541525588	1
0	1453	809.63179395605	0
0	1460	810.829314067171	1
0	1462	810.83476814585	2
0	1464	811.737338357528	3
0	1465	812.784515931644	2
0	1468	813.936644470781	3
0	1469	814.011083452349	2
0	1472	814.167944823079	3
0	1473	814.606328179212	2
0	1476	814.618899690243	3
0	1477	815.144748838726	2
0	1479	815.729575554878	1
0	1481	816.110929779838	0
0	1492	819.320512840395	1
0	1493	819.354684528024	0
0	1496	819.547957414325	1
0	1498	820.685808039438	2
0	1499	822.015711002821	1
0	1501	822.728309122784	0
0	1528	833.806665202805	1
0	1529	834.775035232263	0
0	1532	834.777562386799	1
0	1533	835.360005677977	0
0	1552	849.287417618313	1
0	1553	850.008611352719	0
0	1580	856.750010248908	1
0	1581	856.850597756388	0
0	1588	862.549645999334	1
0	1589	863.121440219532	0
0	1620	886.891214270536	1
0	1622	887.407782955253	2
0	1623	887.494646601533	1
0	1625	887.91826459768	0
0	1660	908.726171790534	1
0	1662	908.871819934097	2
0	1663	910.548004118243	1
0	1666	910.878039539293	2
0	1667	912.166279310114	1
0	1670	913.249976379989	2
0	1672	914.136001651449	3
0	1673	914.417935027993	2
0	1676	915.418515592686	3
0	1677	915.507110729925	2
0	1680	917.094362037091	3
0	1681	917.106525153252	2
0	1683	917.609817733692	1
0	1685	917.727891860086	0
0	1696	923.737696330847	1
0	1697	924.62666722519	0
0	1700	924.739878682293	1
0	1701	925.201801292005	0
0	1704	925.400003480074	1
0	1705	925.818529819868	0
0	1708	925.951121180855	1
0	1710	926.370202567914	2
0	1712	926.516743225015	3
0	1714	926.918317695426	4
0	1715	927.440377320432	3
0	1718	927.771294509011	4
0	1719	927.78537659964	3
0	1722	928.752387162285	4
0	1724	928.938714424795	5
0	1725	929.319457097559	4
0	1728	930.470346194189	5
0	1729	930.719180081448	4
0	1731	931.469982104299	3
0	1733	932.057609522881	2
0	1735	933.234956365727	1
0	1737	935.107609058301	0
0	1744	939.390165541152	1
0	1745	939.529002436367	0
0	1756	941.834964104873	1
0	1758	942.420737132955	2
0	1760	942.677241902902	3
0	1761	942.837385553623	2
0	1763	943.277521988543	1
0	1765	943.280362909261	0
0	1796	974.4223148039	1
0	1797	976.394884464369	0
0	1828	993.173006706849	1
0	1830	994.461423307429	2
0	1832	994.829295433303	3
0	1833	996.411176952925	2
0	1835	996.860386153421	1
0	1837	997.5225111518	0
1	6	2.794433212065	1.685151903379
1	8	4.12395900624	1.703739669252
1	14	9.373534230112	2.024977585314
1	18	9.857037817521	1.24641671594
1	22	13.742254827416	4.160707063867
1	26	15.978999254186	5.701604457446
1	28	16.214361105253	2.259649972143
1	32	19.525339974912	1.354127884798
1	38	21.150576890402	1.088097716176
1	42	23.32918895317	2.233950588344
1	46	25.281206708552	2.186770237629
1	48	26.664554284509	2.713078255594
1	60	29.399769988407	2.041334693406
1	64	29.469535042158	2.101264643112
1	66	29.699874398997	1.448344538341
1	70	31.278361392962	2.613383734359
1	72	31.44212847882	2.774235300777
1	74	31.628231766092	2.172573533445
1	76	31.814492302754	1.425416136329
1	80	35.306089919273	0.084653168801
1	84	41.789613314816	0.364095764462
1	90	43.502399352966	1.529194313372
1	94	43.680218474043	1.705926259494
1	96	43.753478972066	0.111149234719
1	102	46.797553759562	1.20754974797
1	104	46.997200387074	0.866976903462
1	110	56.650426340181	0.913587514582
1	112	57.18702054933	1.037200225461
1	116	58.73250486443	0.720666900598
1	120	59.712460892931	0.24930296386
1	126	61.891450253421	1.29307002298
1	130	63.784810273422	2.735114207135
1	132	66.428377277457	3.62975687118
1	136	67.87052754273	1.331579102793
1	142	72.547652115432	0.64738490946
1	144	73.226685327125	1.21382742023
1	154	74.992203539838	0.902684400398
1	156	75.117173882542	0.991194071328
1	158	75.349100785252	0.952240633784
1	162	78.744286184069	4.189259603966
1	164	79.61972841801	2.39955050964
1	168	81.621302936173	0.096975672889
1	172	82.979821085923	0.01372323059
1	176	85.487573719111	1.813576370669
1	182	88.851522143111	2.462611846625
1	188	90.070900562802	1.563093408385
1	190	90.376775954513	0.641285957044
1	194	91.599910873879	1.672155273905
1	198	94.16790992293	3.261352114956
1	200	94.50780205135	1.823416046021
1	204	96.042874136717	1.152075861302
1	208	99.087147605137	0.734578733469
1	214	102.315334373308	2.098549135983
1	216	104.890900953061	4.191102425572
1	222	109.081038192582	0.671836195087
1	226	109.987908346146	0.980783900345
1	228	110.294807774455	1.123870810561
1	234	115.287368706325	4.792813386275
1	236	115.523594916746	0.904488641759
1	240	116.549254463207	0.875556924265
1	244	118.665176237605	1.046684068235
1	254	124.959855868095	2.418795500518
1	256	126.086316342508	3.247677893946
1	258	126.622679899126	3.561549773958
1	260	128.028162810345	4.707594372173
1	264	135.089499636425	2.413911901314
1	268	136.773513217252	0.276660272784
1	274	142.071206016757	3.712988914518
1	276	142.433223320866	0.383704733448
1	286	148.196160346996	2.308606243707
1	290	149.314322018903	1.596009824785
1	294	151.35103253425	3.499613509797
1	298	152.174351234023	4.101828545765
1	300	152.804746076776	4.575569948991
1	306	155.481079369324	6.128241764513
1	308	155.980658391477	4.288204490984
1	314	157.658190219564	3.106842885907
1	316	157.893302464127	3.311549323426
1	318	158.105261988829	1.941958282548
1	322	158.608655028156	1.973077189709
1	332	162.556461579638	4.04593898815
1	334	163.515234041728	4.560536169896
1	336	164.13076298941	4.322098686998
1	338	164.455013340032	4.214737623751
1	340	164.668931803629	3.556778276451
1	344	165.089327986278	0.187854135402
1	348	166.165848464306	0.617173701568
1	352	167.336712391459	0.250114108476
1	356	168.291182289976	0.722308296402
1	362	175.963587473068	1.277089787414
1	372	178.989942644354	4.290224377989
1	374	180.383166968783	3.904845861235
1	376	181.727977721607	5.117973730604
1	378	183.387503335669	6.705380372721
1	380	183.589854901321	6.819367572597
1	384	186.670860161106	1.774095428108
1	388	188.078306394854	0.714845672796
1	394	192.244814386316	1.2366646415
1	396	193.545640039938	2.231692012837
1	406	196.773158448903	2.860289248477
1	410	199.57398708885	5.336007685941
1	412	200.22249077137	5.270510656825
1	416	201.430138224884	5.483432620135
1	418	201.722565403336	2.916191674806
1	420	203.165042192041	2.724129768097
1	426	205.63448643927	0.512445041553
1	428	205.709159713548	0.508108341044
1	432	206.541506556622	0.516812273168
1	438	210.374644918893	0.817064518656
1	444	211.184468138109	1.477704106264
1	448	211.757953567479	1.325880255732
1	450	211.981356265168	1.214781863432
1	452	212.953522216766	1.715180431743
1	460	218.186795402044	1.227741774869
1	462	219.151173427	1.430539058676
1	468	222.090438365121	4.211654776574
1	474	222.790821672679	2.348729152102
1	478	224.091718157816	2.560490872519
1	480	224.468885562982	2.190666124399
1	488	226.361764581511	3.848093914245
1	494	228.939770865619	5.858955168839
1	496	229.202170618088	4.116621487178
1	498	229.438600508308	3.545924699905
1	500	229.474042196399	3.135516056597
1	502	229.576640295108	3.114902860983
1	504	230.574205135465	3.709494925854
1	508	231.223957969994	0.253840069793
1	516	238.453028174816	1.104683307059
1	518	239.290840064763	1.802449080774
1	522	240.592877002841	2.170961625016
1	524	242.388046907622	2.013387196789
1	528	245.734085650268	0.12017452573
1	532	246.81936720078	0.167312107276
1	536	248.015582599491	0.10147683496
1	540	248.37515659786	0.118773302729
1	546	253.49475142901	0.593768264205
1	552	256.226415364266	2.900894341637
1	554	256.604022407274	1.000560003103
1	556	258.671569417853	2.907644016359
1	560	261.303847718429	1.865296844596
1	564	262.302784678848	0.169710894773
1	572	266.657374024695	2.671277863364
1	574	266.972478012988	1.914368183593
1	576	267.414048827021	2.333681003353
1	580	270.621167841289	0.757392845373
1	584	276.912183842686	0.853513950784
1	588	278.709473234224	0.194102255224
1	592	281.175448955183	0.894185587242
1	600	286.600458896288	3.528659385951
1	602	286.819530599552	0.55544361157
1	604	286.918599231538	0.506325815867
1	608	298.119073576648	0.029118133254
1	612	306.2007614875	0.26120858444
1	620	307.802387260836	1.108009268052
1	622	307.943916231341	0.462999536989
1	626	309.624402814968	2.114250522144
1	628	309.935986281499	1.932721082143
1	632	311.715356060296	1.189575187118
1	636	315.066172273071	1.389926937109
1	640	316.80341968127	0.862319943584
1	644	318.19902013741	0.519112598935
1	648	320.767667834823	1.202027241191
1	656	324.25924614795	0.735087814509
1	658	324.920388718402	1.112648551337
1	664	327.989349165588	4.090128185052
1	666	329.03790035753	2.29983510378
1	668	329.790413054553	2.199736344599
1	672	333.841523809164	0.035790705836
1	676	335.795875660152	1.049405019299
1	680	339.294848397379	1.546229540418
1	686	342.363106382484	2.10071116093
1	688	342.441473568704	1.147952058913
1	692	344.451855166657	0.173687299461
1	696	358.460977987419	0.784147980529
1	700	361.80574488684	0.130106240068
1	704	369.420081847796	0.753248062687
1	708	370.290054675132	0.764847390481
1	714	374.013242747694	2.885642949135
1	716	374.917267684626	1.589126409298
1	720	376.602783426351	0.618019660884
1	724	379.582792254542	0.320136671234
1	730	390.388707938023	1.097500068208
1	734	392.161007950832	2.670293968722
1	736	392.384890343452	1.693282314729
1	740	394.577792874327	0.04582908369
1	744	401.855925154431	1.067170633458
1	748	402.429653242864	0.011851910989
1	754	407.554809652237	2.743899305604
1	756	408.573529583925	3.552560954443
1	760	412.0837715595	0.680190708545
1	764	417.041266294833	1.581991693317
1	770	424.622272859681	3.283103770842
1	776	426.026976098715	4.177617715423
1	778	426.46755291235	0.879200551097
1	780	428.441317295992	2.733447111668
1	784	431.778312273584	0.641586633054
1	788	434.303029961649	0.14951652619
1	792	436.949546783751	0.134723467998
1	796	437.206471571472	0.07188414683
1	800	439.546363204217	0.501847503403
1	808	445.142111542794	3.361611152665
1	810	446.12589378156	3.458237229524
1	812	446.66449708603	2.122545730694
1	820	451.431906651023	4.170681111169
1	822	452.934421659386	4.693478394271
1	824	453.482566332711	4.189358630065
1	828	455.079265836719	0.462845614231
1	840	457.500427248801	1.424540718127
1	842	460.955170572555	4.720500809763
1	844	461.004703039443	4.478046935792
1	850	462.825357924687	5.609922164486
1	852	463.589258135735	6.230703351309
1	854	464.402493374764	2.517249998984
1	856	464.599884513051	2.419969182167
1	860	467.666285228199	0.086996357917
1	864	471.506209335927	0.524490357901
1	868	474.20681539407	0.72192334341
1	872	476.178445180165	0.601891914846
1	876	478.815632222208	2.37061599847
1	882	483.03172558995	2.457361871722
1	884	483.217948919328	1.957157646341
1	888	487.8265072169	0.199648447471
1	896	490.233123522035	0.954265561586
1	898	491.629748444087	2.349472623234
1	900	491.977653869931	2.650866296216
1	912	498.890317716008	5.084693161419
1	914	498.891258283639	3.55982923066
1	916	500.147612838812	3.96937090928
1	920	504.969185917039	8.742779021743
1	924	506.559732741316	9.442894783415
1	928	508.673993675164	6.113029553396
1	930	508.754364428659	2.820718192205
1	932	510.336619991909	3.255253703603
1	936	511.957536219222	0.811987979018
1	940	515.504614005015	1.983414869716
1	944	517.73239158151	0.32577919236
1	948	524.068670654671	0.722259620001
1	952	524.62867737148	0.041130428248
1	958	528.223410103818	2.054945752455
1	964	528.908736798554	2.573479661971
1	966	528.925290641141	0.666559385769
1	968	529.029583913537	0.305878969642
1	974	531.391412267119	1.393635258602
1	976	531.929871438398	1.233439287541
1	980	532.798909129261	0.372985932509
1	984	540.983107641263	0.553973836851
1	992	543.484485939659	2.41803192565
1	994	546.071634408034	3.403016241397
1	996	546.299226438398	2.957891706057
1	1000	554.566374812418	0.52751934998
1	1004	555.087900681054	0.265929322682
1	1010	556.450020329225	0.789810233178
1	1014	557.65852101281	1.314965859299
1	1016	557.87286859131	1.331595109681
1	1020	564.848832084954	1.290283439356
1	1024	565.087707690199	0.112582588347
1	1028	566.56995852556	0.314776810032
1	1032	567.753308420778	0.05079892138
1	1036	570.085324715199	0.123254656277
1	1040	577.494064313526	0.391365457702
1	1046	583.743666735601	1.74429276334
1	1048	583.80312045694	0.698064953323
1	1052	589.937175774977	0.012349852496
1	1056	592.67357113769	0.967182770762
1	1060	597.933569796589	0.454778561244
1	1064	600.751402274351	1.512957565279
1	1070	602.010970369051	1.034873935288
1	1074	604.630389078836	2.76466296822
1	1076	604.901435051333	1.112932712648
1	1080	605.631144657896	0.67845336775
1	1086	611.598753148581	0.773520441069
1	1088	612.213853980412	0.971238187612
1	1094	613.627168616328	0.54913915525
1	1096	614.409416316089	1.326136631647
1	1100	616.378126530309	1.047954830034
1	1106	619.947846833197	1.866086862485
1	1108	620.198226336969	1.77422790817
1	1112	623.560967275855	0.246615534778
1	1116	625.927517367285	0.530058221139
1	1122	630.642368773429	0.766976412475
1	1124	630.977155970793	0.998497940654
1	1130	638.329171059288	3.539475441702
1	1132	638.7421034157	1.729546016394
1	1136	649.673819333234	1.118455407882
1	1140	652.681031691638	2.925553512387
1	1146	655.477822788333	0.44706177894
1	1154	657.855609928845	2.822985625933
1	1158	659.87759444413	3.827876665892
1	1162	661.964663635453	5.804710708249
1	1164	662.631577029779	5.248766953032
1	1166	663.044187692075	5.101558046871
1	1168	664.082013875153	2.879053485177
1	1172	665.667542594945	0.228029827228
1	1176	666.924565718738	0.343128727446
1	1180	669.025984699386	0.658777856498
1	1184	671.052448032266	1.28235780935
1	1188	675.897523218427	1.644617202675
1	1194	678.511604912051	0.378404020232
1	1196	678.681031121798	0.351403174255
1	1200	682.166819680542	0.826749574948
1	1208	687.674679247434	1.753314248373
1	1210	687.826862221256	1.26999320024
1	1212	688.071025110071	1.28421023756
1	1216	689.442603574019	0.00098094711
1	1222	692.408155461539	0.539347599392
1	1224	692.620314140218	0.58864255044
1	1228	694.500758571709	1.051719098598
1	1240	701.905336618096	5.23392458962
1	1246	703.272421589025	4.103534196494
1	1248	703.289351291128	3.503136424528
1	1254	704.32850270359	2.857341319997
1	1258	705.449799155665	3.611469630492
1	1260	706.184138807248	3.97405375175
1	1262	706.752260293297	4.211280028883
1	1264	707.983044995831	4.410079260157
1	1266	708.060291432048	4.221333291703
1	1274	711.910415144222	7.453425630218
1	1276	711.942384000663	3.006837218482
1	1278	712.310696419742	2.90753158147
1	1280	712.430559583508	1.19090636911
1	1288	716.589458989362	3.196526307117
1	1290	718.378361754137	3.112738472277
1	1292	718.411577947162	2.699524008815
1	1296	719.06504856401	0.006140447126
1	1300	721.38332404099	0.106881608069
1	1304	722.416664013526	0.215675753601
1	1310	725.914872650006	0.617882343158
1	1314	727.156848961922	1.55942620514
1	1320	729.425042695388	3.18845664278
1	1322	729.662430007687	1.179818792603
1	1328	732.025190267795	3.085494127407
1	1330	732.801608863184	2.28312980494
1	1336	734.695665421522	3.56007887602
1	1340	739.396478207372	6.290228774216
1	1342	740.752717740951	6.426403386002
1	1344	743.088670981103	5.227471726771
1	1352	746.307655514917	2.142111640164
1	1354	746.438415816943	0.567377607391
1	1358	748.531366659972	2.533620007891
1	1360	749.484434340685	1.392924796652
1	1364	751.038513335601	0.073688533519
1	1368	751.992318783959	0.561464640285
1	1372	754.787068743113	0.170295733054
1	1376	765.507747868233	0.087164202869
1	1380	768.878976233047	2.586309452155
1	1384	769.721736142585	0.62876375348
1	1388	770.445087139932	0.474658002393
1	1392	781.18030372924	0.292543273061
1	1396	782.405514228846	1.075682746611
1	1402	784.714550148592	1.292156768995
1	1406	784.752835382914	1.080127711069
1	1408	787.420976200871	2.684668266986
1	1412	789.740861703848	0.698298358076
1	1416	791.590091492074	0.565518711694
1	1420	792.869715556518	0.841967815969
1	1424	795.242529020572	1.150711021534
1	1428	797.864617414999	1.225752744286
1	1432	800.511091469244	0.200817220674
1	1438	802.925971395441	0.655647335251
1	1440	803.121751613136	0.593995003185
1	1444	805.692956434115	0.872693565936
1	1448	806.284617748956	0.200304206221
1	1454	809.63179395605	2.004524680425
1	1456	809.869585183311	1.924043657723
1	1466	812.784515931644	2.852367046865
1	1470	814.011083452349	3.181769385178
1	1474	814.606328179212	3.771560033362
1	1478	815.144748838726	3.407410481198
1	1480	815.729575554878	1.792931084097
1	1482	816.110929779838	1.942984956759
1	1484	816.563304770563	1.94440508032
1	1488	818.454156825386	1.164017740904
1	1494	819.354684528024	0.735283143164
1	1500	822.015711002821	2.695198162426
1	1502	822.728309122784	3.180351708459
1	1504	822.882784577259	2.196976537821
1	1508	823.509032900144	0.067833919235
1	1512	824.308476534144	0.090241242618
1	1516	826.319478842372	0.380585694973
1	1520	830.113744277867	1.414995478188
1	1524	832.249372193922	0.590219285367
1	1530	834.775035232263	1.723177773262
1	1534	835.360005677977	1.553340475172
1	1536	835.766530935541	0.988968548742
1	1540	841.559136857535	1.058792783856
1	1544	841.856544646455	0.038178686488
1	1548	843.58728976546	0.759297454791
1	1554	850.008611352719	1.355804767025
1	1556	850.277738246887	0.990320628574
1	1560	852.353539408334	1.389240666068
1	1564	853.0627486456	0.227967678246
1	1568	853.998044015576	0.473959398364
1	1572	854.594434563875	0.156128069104
1	1576	855.941578030127	0.610655766167
1	1582	856.850597756388	0.524398974413
1	1584	857.904216388989	1.154206140081
1	1590	863.121440219532	2.763804882851
1	1592	863.643151560909	1.093505561575
1	1596	866.528811335099	0.513219522758
1	1600	868.836204715659	2.064143823105
1	1604	871.766094647554	0.019330530011
1	1608	875.316080705498	1.961733335832
1	1612	879.746616850583	1.672347260195
1	1616	885.240981937934	0.372375456281
1	1624	887.494646601533	0.915340713533
1	1626	887.91826459768	1.027050327144
1	1628	887.979219271144	0.571436315891
1	1632	889.099661009419	0.889098463327
1	1636	895.719869764437	0.987223937637
1	1640	897.954903379211	0.206073928189
1	1644	898.641867160062	0.298836077237
1	1648	899.980066972472	0.135816490564
1	1652	903.897089546785	0.44962311172
1	1656	904.928399406606	0.775196071695
1	1664	910.548004118243	2.080495251105
1	1668	912.166279310114	3.44010751958
1	1674	914.417935027993	5.546115093896
1	1678	915.507110729925	4.629071190632
1	1682	917.106525153252	3.856548773263
1	1684	917.609817733692	3.473816082243
1	1686	917.727891860086	2.3093762674
1	1688	918.959049195916	1.864687158825
1	1692	923.004886207045	0.157768672977
1	1698	924.62666722519	0.937999424799
1	1702	925.201801292005	1.464104961158
1	1706	925.818529819868	1.078651137575
1	1716	927.440377320432	2.040373840358
1	1720	927.78537659964	1.834255418785
1	1726	929.319457097559	2.949254529645
1	1730	930.719180081448	4.202436856433
1	1732	931.469982104299	4.551664408873
1	1734	932.057609522881	4.28631501387
1	1736	933.234956365727	4.482569203442
1	1738	935.107609058301	6.168894633506
1	1740	935.137977301099	4.66763110691
1	1746	939.529002436367	0.263755204661
1	1748	939.890022040827	0.499856499675
1	1752	939.981592631144	0.000433360516
1	1762	942.837385553623	1.89212034069
1	1764	943.277521988543	1.44255788367
1	1766	943.280362909261	0.859625776306
1	1768	943.950952498546	1.273710595644
1	1772	952.814809934895	0.484860644731
1	1776	954.710719016596	0.120973764436
1	1780	962.681818899806	1.257334265034
1	1784	966.551535360864	0.402585054482
1	1788	969.326247479373	2.042133555888
1	1792	971.452074770569	0.085274605992
1	1798	976.394884464369	2.978802384113
1	1800	976.577208225978	2.154893422078
1	1804	977.576769821832	0.074277661953
1	1808	978.733814962144	0.172833976002
1	1812	984.16813165624	1.811596447504
1	1816	986.385008177319	1.822626404303
1	1820	989.515575559233	0.042407572261
1	1824	992.847882586927	0.024578952509
1	1834	996.411176952925	3.456516706298
1	1836	996.860386153421	3.687379446572
1	1838	997.5225111518	3.061087844371
1	1840	998.700646901603	3.8713514683

