version 3
run General-28-20221103-09:44:58-15908
attr configname General
attr datetime 20221103-09:44:58
attr datetimef 20221103-094458
attr experiment General
attr inifile simu_1.ini
attr iterationvars ""
attr iterationvarsd ""
attr iterationvarsf ""
attr measurement ""
attr network Rete
attr processid 15908
attr repetition 28
attr replication #28
attr resultdir results
attr runnumber 28
attr seedset 28
config network Rete
config record-eventlog true
config repeat 30
config sim-time-limit 1000s
config simtime-resolution ps
config **.Servente.serviceTime exponential(1s)
config **.Arrivi.interArrivalTime exponential(2s)

vector 0 Rete.Servente queueLength:vector ETV
attr interpolationmode sample-hold
attr recordingmode vector
attr title "queue length"
vector 1 Rete.Pozzo lifeTime:vector ETV
attr interpolationmode none
attr recordingmode vector
attr title "lifetime of arrived jobs"
attr unit s
0	0	0	0
0	4	2.986017833564	1
0	5	3.435176134055	0
0	12	4.024328559304	1
0	13	4.172304487292	0
0	16	5.036230421251	1
0	17	5.692396364351	0
0	20	5.789348233966	1
0	22	5.832667063542	2
0	24	6.236148917981	3
0	25	6.407774810234	2
0	28	7.572128378691	3
0	29	8.328592510688	2
0	31	11.437983906723	1
0	34	13.028076805411	2
0	35	13.178123161389	1
0	37	14.03556474653	0
0	56	35.977638330206	1
0	57	36.673822199981	0
0	60	39.210300371579	1
0	61	39.22134727562	0
0	76	44.459896165131	1
0	77	44.822055326942	0
0	96	59.481245491807	1
0	98	59.974401115797	2
0	99	60.220448590411	1
0	101	60.775626779766	0
0	124	86.644466942896	1
0	126	87.419936601112	2
0	128	87.571746660314	3
0	129	89.53976767021	2
0	131	90.132459300578	1
0	133	90.778532936853	0
0	136	90.951816362066	1
0	138	91.026891133572	2
0	140	91.341461539333	3
0	141	92.618126858225	2
0	144	92.835432196665	3
0	145	94.067452751891	2
0	147	95.58972682985	1
0	149	96.257758039243	0
0	152	96.870005611995	1
0	153	97.381929831274	0
0	172	109.907195162714	1
0	173	111.559005100808	0
0	192	119.841321585906	1
0	194	120.45079751141	2
0	196	120.804092090695	3
0	197	121.618715960264	2
0	200	121.923492947312	3
0	201	122.561303379068	2
0	203	122.942541976441	1
0	205	123.942660316438	0
0	208	124.120952751913	1
0	210	124.279112275494	2
0	212	124.618986395019	3
0	213	125.383477079265	2
0	215	128.041132291341	1
0	217	129.047926562892	0
0	220	129.603376880973	1
0	221	129.736704330679	0
0	232	136.735927433872	1
0	233	136.74066299001	0
0	236	136.821010206541	1
0	237	137.860602243236	0
0	240	138.1082338426	1
0	241	138.725684902174	0
0	244	140.215552914174	1
0	246	140.267047272388	2
0	247	140.811944627767	1
0	249	141.479674417558	0
0	280	173.142628065091	1
0	282	173.184454752874	2
0	284	173.284696801696	3
0	286	175.90232259553	4
0	287	176.335373140505	3
0	289	176.863417185793	2
0	291	177.918811690762	1
0	294	178.313910904279	2
0	296	178.409056795942	3
0	297	178.724466538324	2
0	299	178.944241862067	1
0	301	179.382865769132	0
0	308	180.310339670688	1
0	309	181.292246806748	0
0	332	192.193350571403	1
0	333	193.847752953274	0
0	336	194.024544862452	1
0	338	194.050197995628	2
0	340	194.776359556446	3
0	341	194.823903206364	2
0	344	195.090427248622	3
0	346	195.316950279349	4
0	347	196.317687295144	3
0	349	196.955253254814	2
0	351	198.292405910198	1
0	353	198.729454108374	0
0	356	199.835081774687	1
0	357	200.664292625272	0
0	372	211.079418076342	1
0	373	211.697183596397	0
0	376	212.198514762952	1
0	377	212.234192278723	0
0	388	223.996844382217	1
0	389	224.889638819704	0
0	396	227.712823305996	1
0	398	228.840330971583	2
0	399	229.275652833756	1
0	401	229.669297109532	0
0	404	229.80245212266	1
0	405	230.663954015851	0
0	420	236.507920831633	1
0	422	237.050075721584	2
0	423	237.121786599062	1
0	425	237.233569242845	0
0	428	237.422660743079	1
0	429	237.768979796995	0
0	432	237.986485796183	1
0	433	238.672354449748	0
0	464	261.39412611257	1
0	465	261.517393594064	0
0	476	267.035348500681	1
0	478	267.200901764294	2
0	479	267.493705205111	1
0	481	268.062387296201	0
0	500	275.650698782107	1
0	501	275.887543435422	0
0	504	276.553010723571	1
0	506	277.468309690833	2
0	507	277.829226072349	1
0	510	281.23285831738	2
0	511	281.437962644447	1
0	514	282.158042338876	2
0	515	282.278492281871	1
0	517	283.516934083348	0
0	524	284.932054827147	1
0	526	285.037974192544	2
0	527	286.135314137834	1
0	530	287.784336313158	2
0	531	287.823619144926	1
0	533	287.876245880761	0
0	540	292.025239556238	1
0	542	292.102745756446	2
0	544	294.131509364124	3
0	545	294.653314840778	2
0	548	295.319421324679	3
0	549	295.341714089753	2
0	551	295.551352351308	1
0	553	296.264807600621	0
0	556	296.716548854315	1
0	557	297.691157789834	0
0	576	305.85627034892	1
0	577	305.996215253772	0
0	612	322.339585573242	1
0	613	325.181437827749	0
0	620	330.338842557025	1
0	621	330.95873368752	0
0	632	335.266129944803	1
0	633	335.475517800628	0
0	636	336.336271468685	1
0	638	336.459121019521	2
0	640	336.726315817982	3
0	641	337.643580625332	2
0	643	337.865144413615	1
0	646	338.85761386384	2
0	647	339.726792003669	1
0	649	339.779778469345	0
0	664	354.332893645365	1
0	666	354.42975339506	2
0	668	354.559794105529	3
0	670	354.745106225892	4
0	672	355.04941077318	5
0	673	356.529270920183	4
0	676	356.782588386019	5
0	677	356.790374194035	4
0	679	356.870041916976	3
0	682	357.311872103997	4
0	683	358.81089870708	3
0	685	359.212461061481	2
0	687	360.098506201394	1
0	689	360.651176170515	0
0	692	361.285798627047	1
0	693	362.898450542081	0
0	700	366.320568138339	1
0	701	367.380882026164	0
0	708	370.982371629423	1
0	710	371.268424440768	2
0	711	371.506986768149	1
0	713	371.891015651091	0
0	744	386.225646793184	1
0	745	386.934040020239	0
0	760	398.355204774528	1
0	762	399.423568986125	2
0	763	399.538667536284	1
0	765	399.586896042526	0
0	784	413.141232707895	1
0	785	414.333836425085	0
0	788	414.705163027622	1
0	789	414.818701877811	0
0	792	414.908384989929	1
0	793	415.133460194298	0
0	804	421.872445439948	1
0	805	423.73065945236	0
0	840	447.192695517892	1
0	841	447.858418982791	0
0	860	464.348132344705	1
0	862	464.871554671931	2
0	864	465.385357698262	3
0	866	465.533682817402	4
0	867	466.461789494984	3
0	870	466.768542538877	4
0	871	467.958109410618	3
0	874	469.080805155129	4
0	875	469.329742616249	3
0	877	469.436814599184	2
0	879	472.038070516476	1
0	881	472.493299850533	0
0	896	477.674852768644	1
0	898	477.925122073137	2
0	899	480.975934244993	1
0	901	481.3502676517	0
0	928	503.784528142918	1
0	929	504.610561303135	0
0	932	505.690885934953	1
0	934	506.615207211895	2
0	936	507.063735081594	3
0	937	508.39402984865	2
0	939	511.622352019347	1
0	941	512.635630059449	0
0	944	513.11059524117	1
0	945	513.249046632698	0
0	952	515.272060322567	1
0	953	515.605585400314	0
0	964	517.815818428779	1
0	965	517.89859908135	0
0	968	518.954316410067	1
0	969	520.539578110214	0
0	996	534.296280233823	1
0	997	535.247199071253	0
0	1000	535.408578107227	1
0	1001	536.037233426722	0
0	1008	538.797067653857	1
0	1010	539.380584300622	2
0	1011	540.726838380275	1
0	1014	541.769712580993	2
0	1016	542.867219551724	3
0	1018	544.309014947456	4
0	1019	546.199948318122	3
0	1021	546.764944163292	2
0	1023	546.921701379475	1
0	1026	547.623279874415	2
0	1028	548.659704048285	3
0	1029	548.817377739931	2
0	1031	548.851583682537	1
0	1034	548.852685190136	2
0	1035	549.375991018907	1
0	1038	549.43334388234	2
0	1040	549.476121706363	3
0	1041	550.683974141422	2
0	1043	551.999924423783	1
0	1045	552.103773331461	0
0	1048	552.504841206378	1
0	1049	555.33202960486	0
0	1064	563.944172450229	1
0	1066	564.074372642096	2
0	1068	564.288052331014	3
0	1069	564.313692810811	2
0	1071	565.261723257803	1
0	1073	566.485154502411	0
0	1084	570.617725567473	1
0	1086	570.902796182597	2
0	1088	572.463151269941	3
0	1089	573.662482412922	2
0	1092	574.673408706786	3
0	1094	574.67799298479	4
0	1096	574.898517820998	5
0	1098	575.777869995603	6
0	1099	576.20178887934	5
0	1101	578.172421674308	4
0	1103	578.240913586888	3
0	1105	578.708924409231	2
0	1108	578.859051685298	3
0	1109	579.333720791908	2
0	1112	579.691568515002	3
0	1114	581.02931100861	4
0	1115	581.938565791718	3
0	1117	582.889847983901	2
0	1119	583.392453398897	1
0	1121	583.624496537818	0
0	1140	591.757259212106	1
0	1141	593.202195135918	0
0	1144	593.678024453508	1
0	1146	593.736153049538	2
0	1148	594.637730291092	3
0	1149	595.448939682085	2
0	1151	595.838234223667	1
0	1154	595.851750060277	2
0	1155	596.70058511262	1
0	1157	597.082104083544	0
0	1164	600.138492836158	1
0	1165	600.276740301783	0
0	1168	601.833693329876	1
0	1169	602.324570604944	0
0	1192	611.434764655191	1
0	1193	612.297796169156	0
0	1216	626.042581770283	1
0	1217	626.727947155969	0
0	1224	629.343771557814	1
0	1225	629.865312838814	0
0	1228	630.824198191298	1
0	1230	632.525624783644	2
0	1231	632.955530399198	1
0	1233	633.36377359959	0
0	1236	633.427622390248	1
0	1237	633.436815439638	0
0	1248	638.169116041988	1
0	1250	638.961706028828	2
0	1252	640.381984684302	3
0	1254	640.752855492202	4
0	1255	640.956720236681	3
0	1257	641.020916544158	2
0	1260	641.026627439974	3
0	1261	641.318190856821	2
0	1263	642.467983762615	1
0	1265	643.210934711562	0
0	1296	660.658606451371	1
0	1297	660.706359736972	0
0	1340	680.56054857221	1
0	1341	681.053738651913	0
0	1344	681.187326949431	1
0	1346	682.033475454291	2
0	1348	682.258466853215	3
0	1350	683.317715360497	4
0	1351	683.509929074395	3
0	1354	683.758618179003	4
0	1356	683.780221142356	5
0	1357	683.97648216492	4
0	1360	684.316101892597	5
0	1361	684.746814512398	4
0	1363	686.43622910667	3
0	1366	686.785098306241	4
0	1367	686.856918878089	3
0	1369	687.880401942139	2
0	1371	690.04967693317	1
0	1373	690.223084681218	0
0	1376	690.572875922256	1
0	1377	691.104117141746	0
0	1384	698.788340110196	1
0	1385	698.895919913177	0
0	1404	708.615235196967	1
0	1405	708.616822962547	0
0	1412	712.236510779116	1
0	1414	714.379053764107	2
0	1415	715.065106512545	1
0	1418	716.749724130677	2
0	1420	716.876979388755	3
0	1421	717.332918708913	2
0	1423	718.705129604273	1
0	1426	718.756363185403	2
0	1427	719.132853485271	1
0	1430	719.570215658293	2
0	1432	719.928274845188	3
0	1434	719.966015488786	4
0	1435	720.306110701658	3
0	1438	720.306816534484	4
0	1439	722.433739911301	3
0	1441	722.547569896084	2
0	1444	723.987730154698	3
0	1445	726.211370789882	2
0	1447	726.396819161923	1
0	1450	726.592078466993	2
0	1452	726.889456116104	3
0	1453	728.552425747896	2
0	1456	730.290531219454	3
0	1458	731.381184623486	4
0	1459	732.48498959742	3
0	1461	733.064302139071	2
0	1464	734.357457686203	3
0	1465	735.029499978059	2
0	1467	735.250729705233	1
0	1469	736.100732366594	0
0	1476	741.77704300561	1
0	1478	742.155526752945	2
0	1479	742.921594476258	1
0	1482	743.629470584293	2
0	1483	744.924736034087	1
0	1485	745.565422662725	0
0	1492	748.149257010568	1
0	1493	749.087649688317	0
0	1508	753.455601110166	1
0	1509	754.268547629678	0
0	1520	758.138639804758	1
0	1521	758.248510635892	0
0	1528	759.472853392364	1
0	1529	761.158100814739	0
0	1532	761.732700283299	1
0	1533	762.050023709045	0
0	1536	762.602272695775	1
0	1537	762.73038109198	0
0	1552	770.429828429595	1
0	1553	770.540624230491	0
0	1560	771.32220273345	1
0	1561	771.547364301325	0
0	1564	771.710126734955	1
0	1566	771.879386931703	2
0	1567	772.003414524687	1
0	1570	772.53194922148	2
0	1571	775.169269729626	1
0	1573	775.236816385311	0
0	1580	779.275272907585	1
0	1582	779.378178754808	2
0	1583	779.405943578101	1
0	1585	779.751937594932	0
0	1588	780.052040439686	1
0	1590	780.595534694276	2
0	1591	782.076640311414	1
0	1594	782.896477475741	2
0	1596	783.704199025771	3
0	1598	783.903171498032	4
0	1600	784.026701637905	5
0	1601	784.571165248035	4
0	1603	785.229104733119	3
0	1605	785.700388428853	2
0	1608	786.532962466363	3
0	1610	787.335142302454	4
0	1612	787.347405370645	5
0	1614	787.48033348729	6
0	1615	787.63563208251	5
0	1617	788.059489894472	4
0	1620	788.29454240724	5
0	1621	789.472316349562	4
0	1624	789.498495327519	5
0	1625	789.964636537885	4
0	1627	791.56154765458	3
0	1630	792.849476743491	4
0	1631	793.354235611145	3
0	1633	793.691582610701	2
0	1636	796.296933650451	3
0	1637	796.300527596274	2
0	1639	797.3308012651	1
0	1641	798.794911851855	0
0	1644	799.072065558948	1
0	1645	799.246606305937	0
0	1664	817.097884166511	1
0	1665	817.766511502056	0
0	1692	827.464703766037	1
0	1694	827.472172258084	2
0	1695	828.076443778943	1
0	1697	829.838212831941	0
0	1716	838.646701776199	1
0	1718	839.485517627069	2
0	1719	839.930280674488	1
0	1722	840.015312584593	2
0	1724	840.278614624948	3
0	1725	840.69349873091	2
0	1728	841.652957535854	3
0	1730	842.131636049466	4
0	1731	842.968347723678	3
0	1733	844.539101400696	2
0	1735	847.689042344404	1
0	1738	848.096024913888	2
0	1739	848.433927211199	1
0	1742	849.464391065018	2
0	1744	849.465362099251	3
0	1745	849.621178576735	2
0	1747	850.348473922315	1
0	1750	850.768410343413	2
0	1752	851.509265231511	3
0	1753	854.322280369627	2
0	1755	855.571709027049	1
0	1758	855.793832389352	2
0	1759	856.176636705353	1
0	1762	856.340868743553	2
0	1763	856.707653095245	1
0	1765	857.161982723519	0
0	1772	861.980547148084	1
0	1774	864.564959377037	2
0	1776	865.290529593548	3
0	1777	865.619841550565	2
0	1780	865.692409349473	3
0	1781	866.367346296816	2
0	1783	866.42361544672	1
0	1785	866.653837641733	0
0	1788	867.42667916708	1
0	1790	867.626806286382	2
0	1791	867.637982505044	1
0	1794	867.697880653893	2
0	1795	868.440764157192	1
0	1797	868.60052465316	0
0	1816	886.256086487496	1
0	1817	886.432364724725	0
0	1828	891.796487408035	1
0	1829	891.816736559418	0
0	1832	893.986712605752	1
0	1834	894.242066163417	2
0	1835	897.012852018407	1
0	1838	897.363472364358	2
0	1839	897.453090690941	1
0	1841	898.337091115486	0
0	1848	899.819185255604	1
0	1849	899.852635571442	0
0	1868	909.327869534592	1
0	1869	909.612473352374	0
0	1872	909.762001075515	1
0	1874	909.79872530992	2
0	1875	911.754252071436	1
0	1877	912.878164203897	0
0	1892	924.175100705557	1
0	1893	924.190813997122	0
0	1896	927.064857039631	1
0	1897	927.609059751628	0
0	1900	928.839341529343	1
0	1901	928.914576205378	0
0	1908	933.878423448365	1
0	1909	934.419002975466	0
0	1920	936.207653663597	1
0	1922	936.316246880729	2
0	1923	936.539178981689	1
0	1925	936.682623926153	0
0	1932	938.631041571197	1
0	1934	939.637831583287	2
0	1935	941.913643650482	1
0	1937	943.395357905175	0
0	1980	970.11692326445	1
0	1981	970.241604866506	0
0	1992	982.405408322405	1
0	1994	982.727784265121	2
0	1996	982.97713455345	3
0	1997	983.148935850928	2
0	2000	984.154103306571	3
0	2002	985.298246499003	4
0	2003	985.487195383838	3
0	2005	985.545347088252	2
0	2007	986.786529207587	1
0	2009	987.24033128002	0
0	2012	987.64270164976	1
0	2014	987.717006577929	2
0	2016	988.404720444931	3
0	2017	989.196007397804	2
0	2019	989.287319128398	1
0	2021	989.595840693471	0
1	6	3.435176134055	0.823801803846
1	8	3.568669922178	0.582652088614
1	14	4.172304487292	0.506820930665
1	18	5.692396364351	1.668067805047
1	26	6.407774810234	1.371544388983
1	30	8.328592510688	2.539244276722
1	32	11.437983906723	5.605316843181
1	36	13.178123161389	6.941974243408
1	38	14.03556474653	6.463436367839
1	40	14.249625885246	1.221549079835
1	44	24.858691698866	3.533418659035
1	48	26.016505753906	0.267628957892
1	52	29.699829179278	0.026707333479
1	58	36.673822199981	2.919889219946
1	62	39.22134727562	3.243708945414
1	64	39.569452987702	0.359152616123
1	68	40.697649797849	0.181850107473
1	72	43.077830125183	0.503225975205
1	78	44.822055326942	0.714717626133
1	80	45.190278448698	0.730382283567
1	84	46.650515532845	0.561362763377
1	88	53.753216395475	1.772365179197
1	92	56.802198070557	0.826435331202
1	100	60.220448590411	1.777195886406
1	102	60.775626779766	1.294381287959
1	104	61.179960735781	1.205559619984
1	108	71.641513645485	0.095419123355
1	112	74.93670230161	1.486475246744
1	116	79.735848566979	0.16179416158
1	120	82.957391909953	1.292276153249
1	130	89.53976767021	3.104352226099
1	132	90.132459300578	3.487992357682
1	134	90.778532936853	3.358596335741
1	142	92.618126858225	5.046380197911
1	146	94.067452751891	3.115636389825
1	148	95.58972682985	4.562835696278
1	150	96.257758039243	4.91629649991
1	154	97.381929831274	4.546497634609
1	156	97.523150350573	0.653144738578
1	160	98.592536448803	0.040096401785
1	164	100.005828789908	1.067180695208
1	168	102.591104726952	0.289260136397
1	174	111.559005100808	4.458335983267
1	176	112.321251681775	2.414056519061
1	180	113.377405356037	0.060998388232
1	184	115.536254564505	1.19983243839
1	188	118.040191704652	0.986645518283
1	198	121.618715960264	2.261237201205
1	202	122.561303379068	2.719981793162
1	204	122.942541976441	2.491744465031
1	206	123.942660316438	3.138568225743
1	214	125.383477079265	3.459984131953
1	216	128.041132291341	3.920179539428
1	218	129.047926562892	4.768814287398
1	222	129.736704330679	5.11771793566
1	224	131.527867819798	1.924490938825
1	228	136.166095572478	0.261325068181
1	234	136.74066299001	0.112955970189
1	238	137.860602243236	1.124674809364
1	242	138.725684902174	1.904674695633
1	248	140.811944627767	2.703710785167
1	250	141.479674417558	1.264121503384
1	252	141.801680666764	1.534633394376
1	256	153.3295573391	1.357264855368
1	260	154.721770678587	0.335097908712
1	264	160.115114243553	1.295535142466
1	268	162.332730918847	0.675445463447
1	272	165.150078931495	2.025075256086
1	276	169.835357466506	0.177049527922
1	288	176.335373140505	3.551733222821
1	290	176.863417185793	3.720789120702
1	292	177.918811690762	4.734356937888
1	298	178.724466538324	5.439769736628
1	300	178.944241862067	3.041919266537
1	302	179.382865769132	1.068954864853
1	304	179.784249728055	1.375192932113
1	310	181.292246806748	1.396930501807
1	312	181.746400041254	1.436060370566
1	316	183.850055577884	0.756664371337
1	320	187.245757842044	0.437236487329
1	324	189.217376696911	0.722934585096
1	328	191.872921428146	0.303404185114
1	334	193.847752953274	1.908784316467
1	342	194.823903206364	2.630552634961
1	348	196.317687295144	2.293142432692
1	350	196.955253254814	2.905055259186
1	352	198.292405910198	3.516046353752
1	354	198.729454108374	3.639026859752
1	358	200.664292625272	5.347342345923
1	360	202.379787556866	2.544705782179
1	364	204.920551911695	2.004118456077
1	368	209.545038138479	0.481476583594
1	374	211.697183596397	0.945222900852
1	378	212.234192278723	1.154774202381
1	380	212.511442020227	0.312927257275
1	384	217.15910855789	0.063207199226
1	390	224.889638819704	1.701093366728
1	392	225.373550076118	1.376705693901
1	400	229.275652833756	3.855665283925
1	402	229.669297109532	1.956473803536
1	406	230.663954015851	1.823623044268
1	408	231.249775862071	1.447323739411
1	412	234.285693875701	0.02585357028
1	416	234.933791334186	0.265549150486
1	424	237.121786599062	1.510717440989
1	426	237.233569242845	0.725648411212
1	430	237.768979796995	0.718904075411
1	434	238.672354449748	1.249693706669
1	436	241.09001460765	3.103528811467
1	440	243.895060990597	0.706012725516
1	444	244.655762786284	0.577380749306
1	448	247.415119753474	0.032825044107
1	452	250.24468138103	0.259300945406
1	456	255.218521910789	0.200409454413
1	460	257.873630260762	0.277805961455
1	466	261.517393594064	1.657870053458
1	468	262.249881510236	0.855755397666
1	472	266.392498481853	0.459843461013
1	480	267.493705205111	0.620554323336
1	482	268.062387296201	1.02703879552
1	484	268.877427890403	1.676526126109
1	488	269.091664511632	0.033613440084
1	492	271.462766013943	0.509193919072
1	496	273.211817920637	0.086998063991
1	502	275.887543435422	0.660034222811
1	508	277.829226072349	2.178527290242
1	512	281.437962644447	4.884951920876
1	516	282.278492281871	4.810182591038
1	518	283.516934083348	2.284075765968
1	520	283.521555390744	1.363513051868
1	528	286.135314137834	1.444722138355
1	532	287.823619144926	2.891564317779
1	534	287.876245880761	2.838271688217
1	536	288.486466444405	0.702130131247
1	546	294.653314840778	2.952138762592
1	550	295.341714089753	3.316474533515
1	552	295.551352351308	3.448606594862
1	554	296.264807600621	2.133298236497
1	558	297.691157789834	2.371736465155
1	560	298.155086512871	1.438537658556
1	564	299.04253864204	0.234803443732
1	568	300.140514954893	0.389435901234
1	572	302.095878442188	0.23088944453
1	578	305.996215253772	0.527410167199
1	580	306.141805326672	0.285534977752
1	584	307.926178175627	1.69502096679
1	588	312.105943539137	1.016894481261
1	592	313.890427964891	1.126430592721
1	596	314.556177457669	0.008576007181
1	600	316.452933060096	1.337518641602
1	604	319.162041799806	1.457447796979
1	608	320.577478627718	0.177018712611
1	614	325.181437827749	3.236197433778
1	616	326.780263145723	4.440677572481
1	622	330.95873368752	0.877353334345
1	624	331.002186882577	0.663344325552
1	628	331.645570210681	0.419597542327
1	634	335.475517800628	0.458353740722
1	642	337.643580625332	2.377450680529
1	644	337.865144413615	1.52887294493
1	648	339.726792003669	3.267670984148
1	650	339.779778469345	3.053462651363
1	652	340.510189349921	1.652575486081
1	656	345.867725324041	0.684074711129
1	660	353.683061786879	0.269942621599
1	674	356.529270920183	2.529173020111
1	678	356.790374194035	2.45748054867
1	680	356.870041916976	2.440288521916
1	684	358.81089870708	4.251104601551
1	686	359.212461061481	4.467354835589
1	688	360.098506201394	5.049095428214
1	690	360.651176170515	3.868587784496
1	694	362.898450542081	5.586578438084
1	696	363.58621573088	2.300417103833
1	702	367.380882026164	1.511437861929
1	704	367.517089854188	1.196521715849
1	712	371.506986768149	0.945858380631
1	714	371.891015651091	0.908644021668
1	716	372.601783006251	1.333358565483
1	720	376.718346493151	0.618262931414
1	724	378.172585135842	1.274602989087
1	728	378.35305722395	0.040508086262
1	732	381.466090068158	1.274634762251
1	736	382.352075567656	0.340838226312
1	740	384.395229789907	0.674601677618
1	746	386.934040020239	2.067182808789
1	748	387.143270352521	0.917623559337
1	752	392.920717249192	1.037536405939
1	756	396.53448006193	0.658011537328
1	764	399.538667536284	1.545875329701
1	766	399.586896042526	1.231691267998
1	768	399.924300097989	0.500731111864
1	772	401.270662615884	0.202252389587
1	776	407.466517434723	0.710265322887
1	780	411.134646514067	1.054897138311
1	786	414.333836425085	1.239606736246
1	790	414.818701877811	1.677469169916
1	794	415.133460194298	0.428297166676
1	796	415.457666771466	0.549281781537
1	800	418.442782707681	2.241638384491
1	806	423.73065945236	2.18582544371
1	808	423.790637901294	1.918192461346
1	812	430.379480381241	0.906036989532
1	816	435.29092292181	0.73197331439
1	820	435.894439267352	0.195137618628
1	824	439.70573462971	0.623104726323
1	828	442.812328573353	0.209692857301
1	832	445.79721192596	1.126440012619
1	836	446.3132474514	0.185224047505
1	842	447.858418982791	0.690946852409
1	844	448.568834065197	1.376138547305
1	848	452.286441912211	0.574349039371
1	852	453.593550182345	0.668049996158
1	856	458.642359463904	2.630076275505
1	868	466.461789494984	2.342267387093
1	872	467.958109410618	3.609977065913
1	876	469.329742616249	4.458187944318
1	878	469.436814599184	4.051456900922
1	880	472.038070516476	6.504387699074
1	882	472.493299850533	5.724757311656
1	884	472.51853067787	3.437725522741
1	888	473.764613272765	1.081845544431
1	892	476.04301422537	0.286728078782
1	900	480.975934244993	4.272677584921
1	902	481.3502676517	3.675414883056
1	904	482.497634500931	4.572512427794
1	908	484.284320488434	0.613809894017
1	912	490.632282674564	1.522356006002
1	916	495.58261877092	0.570936477246
1	920	497.286823784249	0.141447219321
1	924	497.751852517958	0.011833052983
1	930	504.610561303135	1.356056870201
1	938	508.39402984865	4.609501705732
1	940	511.622352019347	5.931466084394
1	942	512.635630059449	6.020422847554
1	946	513.249046632698	6.185311551104
1	948	513.840148141726	0.729552900556
1	954	515.605585400314	0.667836501747
1	956	515.812648247775	0.540587925208
1	960	516.687953426425	0.745129007155
1	966	517.89859908135	0.759130046396
1	970	520.539578110214	2.723759681435
1	972	522.774824993377	3.82050858331
1	976	524.595858985237	0.353979553464
1	980	527.971029912046	0.342899967579
1	984	529.360936574937	0.175082450081
1	988	531.143512346822	0.397916320045
1	992	533.572416652134	0.113661858348
1	998	535.247199071253	1.196931706608
1	1002	536.037233426722	1.740953192899
1	1004	536.304773876928	0.896195769701
1	1012	540.726838380275	2.688061802919
1	1020	546.199948318122	7.402880664265
1	1022	546.764944163292	7.38435986267
1	1024	546.921701379475	5.151988798482
1	1030	548.817377739931	5.950158188207
1	1032	548.851583682537	4.542568735081
1	1036	549.375991018907	1.752711144492
1	1042	550.683974141422	2.024270093137
1	1044	551.999924423783	3.147239233647
1	1046	552.103773331461	2.670429449121
1	1050	555.33202960486	5.855907898497
1	1052	555.396008800967	2.891167594589
1	1056	557.161793683861	0.066268367377
1	1060	563.664928566509	0.482169013457
1	1070	564.313692810811	0.393052802632
1	1072	565.261723257803	1.317550807574
1	1074	566.485154502411	2.410781860315
1	1076	566.920467304217	2.632414973203
1	1080	567.305070168419	0.10787146035
1	1090	573.662482412922	4.817056137818
1	1100	576.20178887934	5.584063311867
1	1102	578.172421674308	7.269625491711
1	1104	578.240913586888	5.777762316947
1	1106	578.708924409231	4.035515702445
1	1110	579.333720791908	4.655727807118
1	1116	581.938565791718	7.04004797072
1	1118	582.889847983901	7.111977988298
1	1120	583.392453398897	4.533401713599
1	1122	583.624496537818	3.932928022816
1	1124	583.695818531532	2.666507522922
1	1128	584.330582101797	0.376377419965
1	1132	587.799992102858	1.277091717877
1	1136	589.525450056685	0.517692289754
1	1142	593.202195135918	1.795813025672
1	1150	595.448939682085	3.691680469979
1	1152	595.838234223667	2.160209770159
1	1156	596.70058511262	2.964432063082
1	1158	597.082104083544	2.444373792452
1	1160	597.64210396102	1.790353900743
1	1166	600.276740301783	0.633482307265
1	1170	602.324570604944	2.186077768786
1	1172	602.568898827699	0.735205497823
1	1176	605.665280876133	2.264679929259
1	1180	607.068022832283	0.370644648137
1	1184	607.848939872243	0.700584088944
1	1188	608.733700305792	0.795865216906
1	1194	612.297796169156	3.177595119505
1	1196	613.116827658377	1.682063003186
1	1200	614.728874035533	0.49436550833
1	1204	618.442203260961	0.032704327868
1	1208	620.004036974189	0.031821933955
1	1212	625.760844468004	1.347839019561
1	1218	626.727947155969	0.932684477012
1	1220	627.157217504461	1.114635734178
1	1226	629.865312838814	1.025920998466
1	1232	632.955530399198	3.611758841384
1	1234	633.36377359959	2.539575408292
1	1238	633.436815439638	0.911190655994
1	1240	634.695537090785	1.267914700537
1	1244	635.560176036921	0.37723747193
1	1256	640.956720236681	2.924156133449
1	1258	641.020916544158	2.85180050217
1	1262	641.318190856821	2.356484827993
1	1264	642.467983762615	2.085999078313
1	1266	643.210934711562	2.45807921936
1	1268	644.346640760906	3.320013320932
1	1272	645.50350939116	0.441083975213
1	1276	646.350846369298	0.450794454666
1	1280	648.854752327511	2.085386446074
1	1284	655.448708638058	4.078418715886
1	1288	658.887968322565	2.431722438444
1	1292	660.302477170233	1.275969904889
1	1298	660.706359736972	0.208310769369
1	1300	660.81319523013	0.154588778759
1	1304	661.449457708452	0.215123462846
1	1308	662.813894281471	1.311699371124
1	1312	665.235497028713	1.89647982857
1	1316	666.211287523963	0.064918561033
1	1320	667.329846811522	0.60431090737
1	1324	669.276118165914	0.075537931347
1	1328	669.925687761358	0.287953305399
1	1332	675.578937305638	2.768411458492
1	1336	679.605681910182	0.61531855939
1	1342	681.053738651913	1.270413306808
1	1352	683.509929074395	2.949380502185
1	1358	683.97648216492	2.789155215489
1	1362	684.746814512398	2.713339058107
1	1364	686.43622910667	4.177762253455
1	1368	686.856918878089	3.539203517592
1	1370	687.880401942139	4.121783763136
1	1372	690.04967693317	6.269455790814
1	1374	690.223084681218	5.906982788621
1	1378	691.104117141746	4.319018835505
1	1380	691.440803326094	0.867927403838
1	1386	698.895919913177	2.866922015543
1	1388	699.650698625265	0.862358515069
1	1392	703.592390155004	0.190807745685
1	1396	704.89074193755	0.015143651326
1	1400	707.898589374479	0.706194164702
1	1406	708.616822962547	0.290112305199
1	1408	709.780691498416	1.165456301449
1	1416	715.065106512545	3.504021105189
1	1422	717.332918708913	5.096407929797
1	1424	718.705129604273	4.326075840166
1	1428	719.132853485271	2.383129354594
1	1436	720.306110701658	3.429131312903
1	1440	722.433739911301	3.677376725898
1	1442	722.547569896084	2.977354237791
1	1446	726.211370789882	6.283095944694
1	1448	726.396819161923	6.430803673137
1	1454	728.552425747896	8.245609213412
1	1460	732.48498959742	8.497259442722
1	1462	733.064302139071	6.472223672078
1	1466	735.029499978059	8.140043861955
1	1468	735.250729705233	4.960198485779
1	1470	736.100732366594	4.719547743108
1	1472	738.113145014428	3.755687328225
1	1480	742.921594476258	2.098137476112
1	1484	744.924736034087	3.147693028477
1	1486	745.565422662725	3.40989590978
1	1488	746.223529378833	2.59405879454
1	1494	749.087649688317	2.504196612493
1	1496	749.271827695038	1.12257068447
1	1500	749.334691508918	0.028608518334
1	1504	750.497595184662	0.303940510023
1	1510	754.268547629678	1.845142429807
1	1512	754.290276047815	0.834674937649
1	1516	755.518946009802	0.158836640428
1	1522	758.248510635892	1.532465779497
1	1524	758.283871873943	0.145232069185
1	1530	761.158100814739	1.890720548345
1	1534	762.050023709045	2.577170316681
1	1538	762.73038109198	0.997680808681
1	1540	763.757567549425	1.15529485365
1	1544	766.427824417256	0.830140194979
1	1548	768.966382769413	0.08868576718
1	1554	770.540624230491	0.74527708464
1	1556	771.002947617564	0.573119187969
1	1562	771.547364301325	0.338864991403
1	1568	772.003414524687	0.681211791237
1	1572	775.169269729626	3.459142994671
1	1574	775.236816385311	3.357429453608
1	1576	775.638671762847	3.106722541367
1	1584	779.405943578101	1.392677622657
1	1586	779.751937594932	0.476664687347
1	1592	782.076640311414	2.698461556606
1	1602	784.571165248035	4.519124808349
1	1604	785.229104733119	4.633570038843
1	1606	785.700388428853	2.803910953112
1	1616	787.63563208251	3.931433056739
1	1618	788.059489894472	4.15631839644
1	1622	789.472316349562	5.445614711657
1	1626	789.964636537885	3.431674071522
1	1628	791.56154765458	4.226405352126