version 3
run General-1-20221027-09:47:20-10452
attr configname General
attr datetime 20221027-09:47:20
attr datetimef 20221027-094720
attr experiment General
attr inifile simu_1.ini
attr iterationvars ""
attr iterationvarsd ""
attr iterationvarsf ""
attr measurement ""
attr network Rete
attr processid 10452
attr repetition 1
attr replication #1
attr resultdir results
attr runnumber 1
attr seedset 1
config network Rete
config record-eventlog false
config repeat 10
config sim-time-limit 1000s
config simtime-resolution ps
config **.Servente.serviceTime exponential(1s)
config **.Arrivi.interArrivalTime exponential(2s)

vector 0 Rete.Servente queueLength:vector ETV
attr interpolationmode sample-hold
attr recordingmode vector
attr title "queue length"
vector 1 Rete.Pozzo lifeTime:vector ETV
attr interpolationmode none
attr recordingmode vector
attr title "lifetime of arrived jobs"
attr unit s
0	0	0	0
0	12	18.491834212067	1
0	13	18.577629798737	0
0	44	47.117175481109	1
0	45	47.521416806401	0
0	52	49.776161791487	1
0	54	50.297793491365	2
0	56	50.353332746599	3
0	57	50.708852158742	2
0	59	51.818932477292	1
0	62	51.882249251501	2
0	64	52.962431351078	3
0	66	54.184477773094	4
0	67	54.271898957513	3
0	69	54.835244188855	2
0	71	54.986517106527	1
0	74	55.820492395854	2
0	76	56.262038829623	3
0	77	57.78549571781	2
0	80	59.275704327609	3
0	81	59.398663409069	2
0	84	61.79305874996	3
0	85	62.848890496355	2
0	87	63.22492911877	1
0	89	63.322322357895	0
0	96	66.499956878587	1
0	97	67.130318391276	0
0	116	78.338309424457	1
0	117	80.321071172761	0
0	128	84.584418904682	1
0	129	85.524502571602	0
0	132	85.645754196805	1
0	134	86.085927886237	2
0	135	86.286282594157	1
0	137	86.62825141063	0
0	144	88.747023476789	1
0	145	89.600399936396	0
0	156	92.9390677032	1
0	157	94.256401880433	0
0	160	94.895559466386	1
0	162	97.056921846411	2
0	163	98.753712548786	1
0	165	99.108240226159	0
0	172	100.996556174109	1
0	173	101.372111240325	0
0	180	101.65132317129	1
0	181	102.092948246157	0
0	184	102.91820828707	1
0	186	103.12044126445	2
0	188	103.815628567477	3
0	189	104.485408862681	2
0	191	104.824770750598	1
0	193	104.952025282581	0
0	204	110.152055457879	1
0	205	111.113202513557	0
0	236	132.867752514573	1
0	238	133.393121241731	2
0	239	133.466062348696	1
0	242	133.609036635765	2
0	243	134.228449201643	1
0	246	134.678098702533	2
0	248	137.049056180025	3
0	249	137.222944911892	2
0	251	137.757686363112	1
0	254	138.407779827408	2
0	256	138.510268437174	3
0	257	138.535521458613	2
0	259	139.303168952969	1
0	261	139.349574972748	0
0	268	141.71230779681	1
0	269	142.134118575873	0
0	272	144.856626534414	1
0	274	144.917135424507	2
0	275	145.027199654796	1
0	278	146.68359718075	2
0	279	147.173853981683	1
0	281	147.952097700841	0
0	304	161.607436760424	1
0	305	162.118899783415	0
0	308	162.503955551318	1
0	309	162.546251453304	0
0	320	166.497981581346	1
0	321	168.376112032149	0
0	324	168.841667913181	1
0	325	169.353406755477	0
0	340	175.565338781536	1
0	341	176.945844594084	0
0	352	182.646852127619	1
0	353	183.712359791693	0
0	356	184.025597032935	1
0	358	184.178909951771	2
0	360	184.422671222737	3
0	361	184.684416225043	2
0	364	187.515141857178	3
0	366	187.647565328369	4
0	367	187.669985514308	3
0	369	188.108971775602	2
0	372	188.842919839622	3
0	373	188.97264540721	2
0	375	189.497125166058	1
0	377	189.97484374333	0
0	400	204.376413233638	1
0	401	204.439952220807	0
0	408	206.123017464718	1
0	409	208.275968861791	0
0	412	208.592173759575	1
0	413	208.717999038708	0
0	416	209.864349899861	1
0	417	211.109799522539	0
0	428	214.643853200807	1
0	429	216.66841936203	0
0	436	219.810692189395	1
0	438	219.956008840268	2
0	440	220.334315748113	3
0	442	221.613433947862	4
0	444	221.908429748441	5
0	445	224.130782560235	4
0	448	224.623958834133	5
0	450	225.050236555417	6
0	451	226.827825536717	5
0	454	227.437081616077	6
0	455	227.452027994339	5
0	458	227.573639669247	6
0	459	227.71386404372	5
0	461	228.423643857898	4
0	463	229.82556444785	3
0	465	230.059476153534	2
0	468	230.390417397799	3
0	470	230.491539776868	4
0	471	232.623744772722	3
0	474	232.977831794967	4
0	476	233.243228902186	5
0	477	233.355345661498	4
0	479	233.375426062062	3
0	482	233.621385624256	4
0	484	233.674506860556	5
0	485	233.880125966829	4
0	488	233.901662583912	5
0	489	233.90884080909	4
0	491	234.191483692766	3
0	493	234.299219507678	2
0	496	235.327588134816	3
0	498	236.008960270937	4
0	499	236.265532030339	3
0	501	236.529183124875	2
0	503	237.333981618596	1
0	506	237.556941975241	2
0	507	240.765677145734	1
0	509	241.091848993667	0
0	520	241.971859489468	1
0	521	242.661122449476	0
0	524	243.660109690596	1
0	526	244.742426923221	2
0	527	246.154295184822	1
0	530	246.389076335285	2
0	532	246.426723020927	3
0	533	246.612913063229	2
0	535	248.225519355095	1
0	537	248.567671695388	0
0	552	255.31916607157	1
0	553	256.197478998296	0
0	592	277.107743399064	1
0	593	277.854754131001	0
0	604	280.207542050511	1
0	606	281.102663986722	2
0	608	282.78178852723	3
0	609	282.929899972983	2
0	611	283.157168571988	1
0	613	283.23401613732	0
0	616	283.423977127239	1
0	617	283.524804023417	0
0	620	283.754049923921	1
0	622	284.106614057497	2
0	624	284.54150737684	3
0	625	284.886701844239	2
0	627	285.757443204382	1
0	629	286.221280119527	0
0	636	290.228464608844	1
0	637	292.002038972533	0
0	648	294.096770786814	1
0	649	294.60702607426	0
0	668	311.610783716428	1
0	669	312.196002642144	0
0	684	320.582071473224	1
0	686	320.813647670354	2
0	688	322.547435953332	3
0	690	322.863160808144	4
0	691	323.539799167335	3
0	694	323.81968786775	4
0	695	324.25068014351	3
0	697	324.493580424244	2
0	700	325.420922010712	3
0	701	325.861384511367	2
0	703	326.967725267662	1
0	705	327.587905511504	0
0	720	334.037407362019	1
0	722	334.191727701641	2
0	723	334.552519021011	1
0	725	334.652802717081	0
0	728	334.663612954501	1
0	730	335.017577851936	2
0	732	335.155284648128	3
0	734	336.036838278457	4
0	735	336.050180506505	3
0	737	336.150341022989	2
0	740	336.639900272581	3
0	742	336.949148872419	4
0	744	337.379088668077	5
0	745	337.783838896213	4
0	747	338.80399371314	3
0	749	339.663394359286	2
0	751	340.407140983621	1
0	753	342.237507473187	0
0	756	342.726760990679	1
0	758	344.679331453934	2
0	759	344.825217482292	1
0	761	345.217545511469	0
0	780	352.40522667877	1
0	782	354.728703406955	2
0	783	354.731443492334	1
0	786	354.756803023835	2
0	787	355.287982993667	1
0	790	355.290894860821	2
0	791	356.591987561444	1
0	794	357.209178358103	2
0	795	358.003950110964	1
0	797	358.510802433664	0
0	808	368.802637682866	1
0	810	368.818707491513	2
0	811	370.819818658465	1
0	814	370.870730117489	2
0	816	371.859348066199	3
0	818	372.557077814981	4
0	819	373.42825945034	3
0	821	373.610922976654	2
0	824	373.888105539034	3
0	826	373.936899183368	4
0	827	374.538048416296	3
0	829	375.13953134005	2
0	832	375.531906336864	3
0	833	377.745676252019	2
0	836	378.835957851543	3
0	838	379.75488255247	4
0	839	380.255696862052	3
0	842	380.759525043158	4
0	843	381.195274102917	3
0	845	381.230743494306	2
0	847	381.421850327683	1
0	849	381.859700053083	0
0	868	391.150288845752	1
0	869	392.875538858798	0
0	884	399.968871398917	1
0	885	400.149696062875	0
0	900	407.8950613024	1
0	902	408.77078384727	2
0	903	410.049150596984	1
0	906	410.515399384986	2
0	907	412.315213312613	1
0	909	412.591611470376	0
0	916	414.784901631243	1
0	917	417.09457028401	0
0	928	423.505988604017	1
0	929	424.258290372142	0
0	936	425.497628799681	1
0	937	425.900916386284	0
0	952	438.844296487456	1
0	953	438.920078992387	0
0	956	439.416197498765	1
0	957	440.567013833387	0
0	964	443.939946214685	1
0	965	445.637372534262	0
0	976	449.310457653875	1
0	977	450.436736648544	0
0	980	451.088003034577	1
0	982	451.186670928913	2
0	984	451.297504549338	3
0	986	451.329505158659	4
0	987	451.383566954218	3
0	989	451.434556100206	2
0	992	452.419627485085	3
0	993	452.571084725519	2
0	996	453.439330652946	3
0	997	455.079486575749	2
0	999	455.079888679666	1
0	1002	455.159642833089	2
0	1003	457.101193056107	1
0	1005	458.643730724117	0
0	1012	463.271274137978	1
0	1014	463.442945347551	2
0	1016	465.299247427384	3
0	1018	465.64261845967	4
0	1019	466.32469777306	3
0	1021	466.559778389552	2
0	1023	467.414765924917	1
0	1025	467.954990825826	0
0	1044	474.981379708149	1
0	1046	475.055682400149	2
0	1047	476.780194318788	1
0	1050	477.869347529724	2
0	1051	478.337988244674	1
0	1054	480.264383221035	2
0	1055	480.645872826398	1
0	1057	480.650547046371	0
0	1064	484.875249807431	1
0	1065	485.372702715207	0
0	1080	487.62346286986	1
0	1081	488.089874826434	0
0	1088	489.419590803038	1
0	1089	490.113266786241	0
0	1096	491.435633540946	1
0	1098	492.52879738722	2
0	1099	494.710269867641	1
0	1102	494.79396851847	2
0	1104	495.236683533573	3
0	1105	495.864462230158	2
0	1108	495.876819493805	3
0	1110	495.896919614734	4
0	1111	496.420810134158	3
0	1113	496.669100095504	2
0	1116	496.73811641518	3
0	1118	496.803072344261	4
0	1119	498.266801189548	3
0	1121	500.998204939605	2
0	1124	501.043570866085	3
0	1125	503.339967033965	2
0	1128	504.09093569397	3
0	1129	504.426808317951	2
0	1131	504.741804398244	1
0	1133	504.75840417989	0
0	1140	506.258798923628	1
0	1141	507.479191987563	0
0	1144	507.814987382067	1
0	1145	508.229363898009	0
0	1152	512.154965340488	1
0	1154	512.329452905025	2
0	1155	512.595324630921	1
0	1157	512.64060686723	0
0	1164	516.144817463943	1
0	1166	516.18383305858	2
0	1167	516.445060563276	1
0	1169	516.51444499442	0
0	1192	529.184120405258	1
0	1194	529.274989683828	2
0	1196	529.675829230703	3
0	1198	530.336220478517	4
0	1199	532.7037908443	3
0	1202	533.677344410998	4
0	1203	534.706935537934	3
0	1205	534.782870282195	2
0	1207	535.948947763912	1
0	1209	537.028734068239	0
0	1212	537.835614010794	1
0	1213	537.871529041671	0
0	1240	553.406540362153	1
0	1242	554.960922560627	2
0	1243	555.587150819148	1
0	1245	556.216544752719	0
0	1264	563.544582877206	1
0	1266	563.562488148183	2
0	1268	564.029366990544	3
0	1269	564.037908478055	2
0	1271	564.322972060656	1
0	1274	565.437637370118	2
0	1275	565.441217664911	1
0	1277	565.498274189035	0
0	1284	569.597246481854	1
0	1285	570.213192564197	0
0	1308	580.710712131329	1
0	1309	581.236251061613	0
0	1316	583.332052465051	1
0	1317	584.05404654886	0
0	1332	594.028330181073	1
0	1333	594.661939027508	0
0	1348	602.86904784242	1
0	1350	603.037515546572	2
0	1351	603.933748861767	1
0	1353	604.367800670986	0
0	1360	606.764459988038	1
0	1362	608.724148691469	2
0	1363	608.776897550813	1
0	1365	609.00038041687	0
0	1380	617.542669947368	1
0	1381	618.499276989959	0
0	1392	624.003566657919	1
0	1393	624.568305966732	0
0	1416	637.176664474221	1
0	1417	637.663601415195	0
0	1436	645.868137559023	1
0	1438	647.049678001486	2
0	1440	647.763737550807	3
0	1441	650.428162021702	2
0	1443	650.582486188174	1
0	1445	651.028086501834	0
0	1456	657.323446124308	1
0	1457	659.942131754648	0
0	1464	664.542922903889	1
0	1465	669.190579569711	0
0	1528	708.908275654133	1
0	1530	710.242231703257	2
0	1532	710.698308290274	3
0	1534	711.343810417361	4
0	1536	711.913138085147	5
0	1538	712.423930518194	6
0	1539	712.859823633696	5
0	1542	713.032022530624	6
0	1543	713.90041397168	5
0	1546	715.805991021153	6
0	1547	716.440413702598	5
0	1549	716.664150881566	4
0	1551	716.722765049273	3
0	1554	717.027192083959	4
0	1556	718.447844846989	5
0	1557	718.841805206663	4
0	1559	719.080011841569	3
0	1562	719.701843644407	4
0	1563	720.370923738271	3
0	1565	720.731709004971	2
0	1567	721.084578889647	1
0	1569	721.755978866062	0
0	1576	723.3623044698	1
0	1578	723.547886949956	2
0	1579	723.806815587332	1
0	1581	723.987965399143	0
0	1600	736.932586184453	1
0	1602	739.612407741071	2
0	1603	739.64171619915	1
0	1605	739.93985662762	0
0	1616	744.816591162358	1
0	1617	745.157965151288	0
0	1620	745.747300622642	1
0	1622	745.920281019127	2
0	1624	746.42088079707	3
0	1626	747.830212209817	4
0	1627	748.105840007273	3
0	1630	748.451627869363	4
0	1632	748.621597935586	5
0	1633	749.291340651855	4
0	1636	749.842808482724	5
0	1637	749.851039396424	4
0	1639	749.966471306588	3
0	1642	750.739370136068	4
0	1643	751.659331619031	3
0	1645	751.706225676681	2
0	1648	752.748449146283	3
0	1649	753.330590629171	2
0	1652	753.729932437164	3
0	1653	754.523954889382	2
0	1656	754.956842471614	3
0	1657	755.977292793672	2
0	1659	756.396533525273	1
0	1662	757.61842644061	2
0	1663	758.80045334007	1
0	1665	759.125360364331	0
0	1680	766.921810904836	1
0	1681	767.053933180719	0
0	1716	794.093576698707	1
0	1717	794.488476827485	0
0	1736	809.926246714968	1
0	1737	811.371216859384	0
0	1756	835.028321614931	1
0	1757	835.086293582233	0
0	1776	842.658630084203	1
0	1777	845.019616455874	0
0	1780	845.652765762029	1
0	1781	847.377735758211	0
0	1788	851.499489009892	1
0	1789	852.538678099694	0
0	1796	854.176935845773	1
0	1797	854.186650072782	0
0	1812	863.726558156356	1
0	1813	866.707627254154	0
0	1816	867.675851362812	1
0	1817	867.949379649161	0
0	1824	871.025901656926	1
0	1825	872.811481046176	0
0	1864	909.691175059619	1
0	1865	913.070613479776	0
0	1884	927.096467570439	1
0	1885	927.287634426224	0
0	1892	932.265280353422	1
0	1894	932.784389289104	2
0	1895	932.891574512494	1
0	1897	934.739817676838	0
0	1904	939.103766023787	1
0	1905	939.63631326832	0
0	1908	940.428309776974	1
0	1909	941.852894541161	0
0	1916	942.83909653702	1
0	1917	943.26651203523	0
0	1920	943.569081817568	1
0	1921	943.661022080305	0
0	1980	980.733393555084	1
0	1981	983.297021788772	0
0	1984	985.08528934384	1
0	1985	986.059555300516	0
0	1988	986.793537930301	1
0	1990	987.745893287226	2
0	1991	987.919571884808	1
0	1993	988.943740911994	0
0	2020	999.426928557358	1
0	2021	999.745471067959	0
1	4	2.353336891184	1.27412523816
1	8	12.82477576261	0.000114387623
1	14	18.577629798737	0.360012747856
1	16	18.736339395963	0.244505183896
1	20	32.486946659243	0.096883872503
1	24	33.134785336057	0.206114633964
1	28	34.362933202249	0.423976478807
1	32	35.426163571487	0.505452532472
1	36	37.910457500982	0.773959770276
1	40	43.163229140677	0.543339378626
1	46	47.521416806401	1.155879710608
1	48	47.750141212994	0.632965731885
1	58	50.708852158742	2.104697296277
1	60	51.818932477292	2.042770685805
1	68	54.271898957513	3.974105466148
1	70	54.835244188855	4.481911442256
1	72	54.986517106527	3.104267855026
1	78	57.78549571781	4.823064366732
1	82	59.398663409069	5.214185635975
1	86	62.848890496355	7.028398100501
1	88	63.22492911877	6.962890289147
1	90	63.322322357895	4.046618030286
1	92	64.501025860439	2.707967110479
1	98	67.130318391276	2.090616922959
1	100	69.38037426049	2.880417381903
1	104	70.59409736133	0.088879528591
1	108	74.078958149078	0.039837879155
1	112	77.764498380125	0.186125288958
1	118	80.321071172761	2.10490298463
1	120	80.424596524917	2.08628710046
1	124	81.105476178411	0.546638692087
1	130	85.524502571602	3.167458922453
1	136	86.286282594157	1.701863689475
1	138	86.62825141063	0.982497213825
1	140	87.007340885035	0.921412998798
1	146	89.600399936396	1.159958868321
1	148	91.399943665395	2.652920188606
1	152	91.824097372164	0.018457577999
1	158	94.256401880433	1.386871777357
1	164	98.753712548786	5.814644845586
1	166	99.108240226159	4.212680759773
1	168	99.437361139221	2.38043929281
1	174	101.372111240325	1.557221871628
1	176	101.481062653417	0.484506479308
1	182	102.092948246157	0.594014360984
1	190	104.485408862681	2.834085691391
1	192	104.824770750598	1.906562463528
1	194	104.952025282581	1.831584018131
1	196	105.091320188545	1.275691621068
1	200	108.508921122368	0.019556955056
1	206	111.113202513557	1.135801921124
1	208	111.350987873755	1.198932415876
1	212	115.435175055661	0.308628808341
1	216	120.628860312091	0.676433948538
1	220	120.717560852753	0.054839093724
1	224	123.27232550262	0.853592042984
1	228	124.246427170414	0.158677578358
1	232	126.881171583162	0.88990574067
1	240	133.466062348696	1.203167667067
1	244	134.228449201643	1.36069668707
1	250	137.222944911892	3.829823670161
1	252	137.757686363112	4.148649727347
1	258	138.535521458613	3.85742275608
1	260	139.303168952969	2.254112772944
1	262	139.349574972748	0.94179514534
1	264	140.439608114266	1.929339677092
1	270	142.134118575873	0.723377769956
1	276	145.027199654796	3.314891857986
1	280	147.173853981683	2.317227447269
1	282	147.952097700841	3.034962276334
1	284	148.099988501111	1.416391320361
1	288	151.507971643385	0.149981782399
1	292	154.193427087008	1.647094560251
1	296	157.507059455639	0.506961156955
1	300	158.129140435257	0.180747828418
1	306	162.118899783415	2.624287050133
1	310	162.546251453304	0.93881469288
1	312	163.935799512262	1.431843960944
1	316	165.49121201592	1.294619827497
1	322	168.376112032149	2.148200938297
1	326	169.353406755477	2.855425174131
1	328	170.743477988852	1.901810075671
1	332	171.35758222621	0.429089487091
1	336	172.116827702142	0.314611974054
1	342	176.945844594084	2.262270895041
1	344	177.504620317979	1.939281536443
1	348	181.70820724092	3.347847604258
1	354	183.712359791693	1.088983291511
1	362	184.684416225043	2.037564097424
1	368	187.669985514308	3.644388481373
1	370	188.108971775602	3.930061823831
1	374	188.97264540721	4.549974184473
1	376	189.497125166058	1.98198330888
1	378	189.97484374333	2.327278414961
1	380	190.245376346772	1.40245650715
1	384	196.868894290573	2.336964515141
1	388	198.263209466661	0.852563840376
1	392	200.366789858096	0.002874452048
1	396	202.041254953923	0.960098733307
1	402	204.439952220807	0.39548245419
1	404	205.188734964331	0.812321730693
1	410	208.275968861791	2.171049022633
1	414	208.717999038708	2.59498157399
1	418	211.109799522539	2.517625762964
1	420	212.086265288001	2.22191538814
1	424	212.773172679319	0.015947732618
1	430	216.66841936203	2.651252671613
1	432	217.84249982502	3.198646624213
1	446	224.130782560235	5.923003065532
1	452	226.827825536717	7.017133347322
1	456	227.452027994339	7.496019154071
1	460	227.71386404372	7.379548295607
1	462	228.423643857898	6.810209910036
1	464	229.82556444785	7.917134699409
1	466	230.059476153534	5.435517319401
1	472	232.623744772722	7.573508217305
1	478	233.355345661498	5.918264045421
1	480	233.375426062062	5.801786392815
1	486	233.880125966829	3.48970856903
1	490	233.90884080909	3.417301032222
1	492	234.191483692766	1.213651897799
1	494	234.299219507678	1.055990605492
1	500	236.265532030339	2.644146406083
1	502	236.529183124875	2.854676264319
1	504	237.333981618596	3.432319034684
1	508	240.765677145734	5.438089010918
1	510	241.091848993667	5.08288872273
1	512	241.224436051864	3.667494076623
1	516	241.575024492326	0.327370932347
1	522	242.661122449476	0.88130799567
1	528	246.154295184822	4.182435695354
1	534	246.612913063229	2.952803372633
1	536	248.225519355095	3.483092431874
1	538	248.567671695388	2.178595360103
1	540	248.832906631695	2.406183610768
1	544	251.425572837863	1.645610271225
1	548	252.798144070155	0.490795319024
1	554	256.197478998296	1.991737324434
1	556	257.572325692901	2.253159621331
1	560	258.919266896586	0.812471938024
1	564	259.370082051672	0.146709532311
1	568	260.40373048681	0.061787848922
1	572	261.369838307318	0.129361186988
1	576	261.618960510027	0.045574807455
1	580	267.222400226727	0.11372218079
1	584	272.328145722383	0.255807944456
1	588	276.366711851943	1.248234681748
1	594	277.854754131001	0.820337529931
1	596	277.867389605434	0.75964620637
1	600	279.3069446296	0.074695834386
1	610	282.929899972983	3.419656598731
1	612	283.157168571988	2.949626521477
1	614	283.23401613732	2.131352150598
1	618	283.524804023417	0.743015496187
1	626	284.886701844239	1.462724717
1	628	285.757443204382	2.003393280461
1	630	286.221280119527	2.11466606203
1	632	289.728504552737	5.186997175897
1	638	292.002038972533	1.876199025391
1	640	292.276275527033	2.047810918189
1	644	293.610739486268	0.680763600997
1	650	294.60702607426	0.967467485679
1	652	296.373006091402	2.276235304588
1	656	302.275219336915	0.170540895574
1	660	306.593678753569	0.018750903012
1	664	309.496335742509	0.072594504753
1	670	312.196002642144	0.666203652456
1	672	313.128243553165	1.517459836737
1	676	315.814774481867	0.841302556049
1	680	318.231054396029	0.381791168374
1	692	323.539799167335	4.475560115244
1	696	324.25068014351	3.668608670286
1	698	324.493580424244	3.67993275389
1	702	325.861384511367	3.313948558035
1	704	326.967725267662	4.104564459518
1	706	327.587905511504	3.768217643754
1	708	327.895680852782	2.47475884207
1	712	330.454028720832	0.068637398274
1	716	331.131303507895	0.462169121626
1	724	334.552519021011	0.993489074286
1	726	334.652802717081	0.615395355062
1	736	336.050180506505	1.858452804864
1	738	336.150341022989	1.486728068488
1	746	337.783838896213	2.766261044277
1	748	338.80399371314	3.648709065012
1	750	339.663394359286	3.626556080829
1	752	340.407140983621	3.76724071104
1	754	342.237507473187	5.288358600768
1	760	344.825217482292	7.446128814215
1	762	345.217545511469	2.49078452079
1	764	345.285782692225	0.606451238291
1	768	346.618746159242	1.328274411079
1	772	349.373654551248	1.479190785775
1	776	351.757804512124	2.383967164178
1	784	354.731443492334	2.687836883702
1	788	355.287982993667	2.882756314897
1	792	356.591987561444	1.863284154489
1	796	358.003950110964	3.247147087129
1	798	358.510802433664	3.219907572843
1	800	361.510063302857	4.300884944754
1	804	363.975080748542	0.813402947736
1	812	370.819818658465	2.472263182673
1	820	373.42825945034	4.625621767474
1	822	373.610922976654	4.792215485141
1	828	374.538048416296	3.667318298807
1	830	375.13953134005	3.280183273851
1	834	377.745676252019	5.188598437038
1	840	380.255696862052	6.367591323018
1	844	381.195274102917	7.258374919549
1	846	381.230743494306	5.698837157442
1	848	381.421850327683	2.58589247614
1	850	381.859700053083	2.104817500613
1	852	381.994752053228	1.23522701007
1	856	387.512558686798	0.14511728542
1	860	388.235525875509	0.704536128669
1	864	389.915771521803	0.021759845699
1	870	392.875538858798	2.955938855339
1	872	394.630670217841	3.480381372089
1	876	397.670145157282	0.015132906814
1	880	398.662322720042	0.193822957512
1	886	400.149696062875	0.403562278708
1	888	400.290104584875	0.321233185958
1	892	403.02556161798	1.658054217926
1	896	406.12790548273	0.422718070373
1	904	410.049150596984	2.815203767923
1	908	412.315213312613	4.420152010213
1	910	412.591611470376	3.820827623106
1	912	414.454229841707	3.938830456721
1	918	417.09457028401	2.358016537506
1	920	417.710534713406	2.925633082163
1	924	422.32210734625	0.790422285281
1	930	424.258290372142	1.602480115388
1	932	424.594769004781	1.088780400764
1	938	425.900916386284	0.673841779397
1	940	426.814985358934	1.317356559253
1	944	431.506481562637	0.015655179145
1	948	433.143573014194	0.900125611889
1	954	438.920078992387	0.568589550873
1	958	440.567013833387	1.722717345931
1	960	440.945707719343	1.529510220578
1	966	445.637372534262	2.233886840681
1	968	446.499784207668	2.559837992983
1	972	447.5191805461	0.203353430622
1	978	450.436736648544	1.55083525857
1	988	451.383566954218	2.073109300343
1	990	451.434556100206	0.346553065629
1	994	452.571084725519	1.384413796606
1	998	455.079486575749	3.781982026411
1	1000	455.079888679666	3.750383521007
1	1004	457.101193056107	4.681565571022
1	1006	458.643730724117	5.204400071171
1	1008	459.116266062325	3.956623229236
1	1020	466.32469777306	3.641367921709
1	1022	466.559778389552	3.288504251574
1	1024	467.414765924917	3.971820577366
1	1026	467.954990825826	2.655743398442
1	1028	468.944057116239	3.301438656569
1	1032	469.509278364974	0.336279043336
1	1036	470.911374338466	0.883904226392
1	1040	473.821024159802	1.386381421218
1	1048	476.780194318788	1.954140794217
1	1052	478.337988244674	3.356608536525
1	1056	480.645872826398	5.590190426249
1	1058	480.650547046371	2.781199516647
1	1060	481.040159967981	0.775776746946
1	1066	485.372702715207	1.111055761642
1	1068	485.972129952258	1.096880144827
1	1072	486.616566894889	0.481433098628
1	1076	487.556142553474	0.529008863095
1	1082	488.089874826434	0.513294645229
1	1084	488.471697557708	0.848234687848
1	1090	490.113266786241	0.972647795598
1	1092	490.675819617449	1.256228814411
1	1100	494.710269867641	3.642075310655
1	1106	495.864462230158	4.428828689212
1	1112	496.420810134158	3.892012746938
1	1114	496.669100095504	1.875131577034
1	1120	498.266801189548	3.030117655975
1	1122	500.998204939605	5.1213854458
1	1126	503.339967033965	7.443047419231
1	1130	504.426808317951	7.688691902771
1	1132	504.741804398244	7.938732053983
1	1134	504.75840417989	3.714833313805
1	1136	505.049246846076	0.958311152106
1	1142	507.479191987563	1.930317954632
1	1146	508.229363898009	1.970564974381
1	1148	509.849666033081	2.034678651014
1	1156	512.595324630921	0.849774138943
1	1158	512.64060686723	0.485641526742
1	1160	513.372519052727	1.043066147702
1	1168	516.445060563276	1.473526480503
1	1170	516.51444499442	0.369627530477
1	1172	517.141261278239	0.957428219659
1	1176	518.286066462627	0.419597868915
1	1180	521.277313104035	0.070647107862
1	1184	523.704159525592	0.474693291151
1	1188	526.276734660246	0.08297525913
1	1200	532.7037908443	4.063841545259
1	1204	534.706935537934	5.522815132676
1	1206	534.782870282195	5.507880598367
1	1208	535.948947763912	6.273118533209
1	1210	537.028734068239	6.692513589722
1	1214	537.871529041671	4.194184630673
1	1216	538.047039569138	0.211425558344
1	1220	538.879602662359	0.629008780865
1	1224	540.151465113138	0.42338274952
1	1228	544.66732656348	0.254943803988
1	1232	546.599422193975	0.897743460052
1	1236	549.83096347102	0.374358724128
1	1244	555.587150819148	2.48058263309
1	1246	556.216544752719	2.810004390566
1	1248	556.513763216	1.552840655373
1	1252	559.886266496454	0.117535781893
1	1256	560.476664542836	0.21438543251
1	1260	562.117192450851	0.692315867245
1	1270	564.037908478055	1.304108738699
1	1272	564.322972060656	0.77838918345
1	1276	565.441217664911	1.878729516728
1	1278	565.498274189035	1.468907198491
1	1280	566.035869482229	0.598232112111
1	1286	570.213192564197	0.958898353358
1	1288	570.479329916948	0.882083435094
1	1292	571.563057044318	0.107548751261
1	1296	572.949926577346	0.725374985205
1	1300	577.296969162504	0.648443421868
1	1304	579.939048751978	0.165666996351
1	1310	581.236251061613	0.972348589319
1	1312	582.021535724262	1.310823592933
1	1318	584.05404654886	1.061713540419
1	1320	584.210168966844	0.878116501793
1	1324	586.152650615108	1.392424390547
1	1328	593.867824170372	0.251091918033
1	1334	594.661939027508	0.732619711492
1	1336	596.20043411137	2.172103930297
1	1340	598.637450954439	0.022583525317
1	1344	601.519812358754	0.392098533701
1	1352	603.933748861767	2.062957192535
1	1354	604.367800670986	1.498752828566
1	1356	605.140945178026	2.103429631454
1	1364	608.776897550813	2.01446514999
1	1366	609.00038041687	2.235920428832
1	1368	610.751422179216	2.027273487747
1	1372	616.632807565195	1.924939687187
1	1376	616.774086887952	0.103965270426
1	1382	618.499276989959	1.053555751547
1	1384	619.715042349107	2.172372401739
1	1388	621.055007024378	0.942226209049
1	1394	624.568305966732	1.607516073061
1	1396	624.603488913316	0.599922255397
1	1400	627.911337753032	1.470714462122
1	1404	629.517064828878	1.315756122982
1	1408	635.486297927372	0.300697598241
1	1412	636.20721475814	0.29715250685
1	1418	637.663601415195	1.000496908068
1	1420	638.087175702266	0.910511228045
1	1424	641.000713982778	1.592525129338
1	1428	643.017525018849	0.59085458011
1	1432	645.39096774978	1.526703829176
1	1442	650.428162021702	4.653497462163
1	1444	650.582486188174	4.714348629151
1	1446	651.028086501834	3.978408500348
1	1448	653.343842308614	5.580104757807
1	1452	655.428491803195	0.779924498369
1	1458	659.942131754648	3.678547604826
1	1460	660.954394992986	3.630948868678
1	1466	669.190579569711	5.101603025115
1	1468	669.980393622618	5.437470718729
1	1472	675.165111867477	0.74744694819
1	1476	676.716104262938	0.145520579902
1	1480	680.321955197922	0.439598848105
1	1484	681.134460131443	0.026568402482
1	1488	685.648910312427	0.17482395257
1	1492	688.369937473847	1.368993635487
1	1496	688.75390308234	0.030871346743
1	1500	694.16946773569	0.456563311825
1	1504	696.450100785702	1.983013825767
1	1508	698.237210360547	1.179858311497
1	1512	701.503510591941	1.174226774394
1	1516	701.846418271005	0.209039478408
1	1520	703.557802971359	0.583224786939
1	1524	707.528708389509	0.871263375713
1	1540	712.859823633696	4.580644266409
1	1544	713.90041397168	4.992138317547
1	1548	716.440413702598	6.198181999341
1	1550	716.664150881566	5.965842591292
1	1552	716.722765049273	5.378954631912
1	1558	718.841805206663	6.928667121516
1	1560	719.080011841569	6.656081323375
1	1564	720.370923738271	7.338901207647
1	1566	720.731709004971	4.925717983818
1	1568	721.084578889647	4.057386805688
1	1570	721.755978866062	3.308134019073
1	1572	721.783973087965	2.082129443558
1	1580	723.806815587332	0.900005201087
1	1582	723.987965399143	0.625660929343
1	1584	724.467641455438	0.919754505482
1	1588	728.647368559069	1.385727768105
1	1592	729.375639487485	0.715682144507
1	1596	732.536946572499	0.778600081947
1	1604	739.64171619915	3.204832820837
1	1606	739.93985662762	3.007270443167
1	1608	739.972713623696	0.360305882625
1	1612	744.107053664677	1.235763663721
1	1618	745.157965151288	0.625491302714
1	1628	748.105840007273	3.289248844915
1	1634	749.291340651855	3.544040029213
1	1638	749.851039396424	3.930758377297
1	1640	749.966471306588	3.545590509518
1	1644	751.659331619031	3.829119409214
1	1646	751.706225676681	3.254597807318
1	1650	753.330590629171	4.708992693585
1	1654	754.523954889382	4.681146406658
1	1658	755.977292793672	5.237922657604
1	1660	756.396533525273	3.64808437899
1	1664	758.80045334007	5.070520902906
1	1666	759.125360364331	4.168517892717
1	1668	759.685321567281	2.066895126671
1	1672	763.095431295519	1.73732733962
1	1676	765.747884570877	0.984826990053
1	1682	767.053933180719	0.154811121175
1	1684	767.135562955467	0.213752050631
1	1688	769.599035754067	0.018502764038
1	1692	771.499719833156	0.069055366249
1	1696	774.323219705355	0.613567004134
1	1700	775.58389527834	0.120295855734
1	1704	777.196160226567	0.028176600359
1	1708	779.46967179366	1.405931836075
1	1712	784.939800570809	0.502279708139
1	1718	794.488476827485	1.374122715056
1	1720	795.090695814519	0.997119115812
1	1724	798.309545529682	0.597994731741
1	1728	806.412425278931	0.65022660185
1	1732	808.165315584787	0.642461531768