version 3
run General-2-20221027-09:47:20-10452
attr configname General
attr datetime 20221027-09:47:20
attr datetimef 20221027-094720
attr experiment General
attr inifile simu_1.ini
attr iterationvars ""
attr iterationvarsd ""
attr iterationvarsf ""
attr measurement ""
attr network Rete
attr processid 10452
attr repetition 2
attr replication #2
attr resultdir results
attr runnumber 2
attr seedset 2
config network Rete
config record-eventlog false
config repeat 10
config sim-time-limit 1000s
config simtime-resolution ps
config **.Servente.serviceTime exponential(1s)
config **.Arrivi.interArrivalTime exponential(2s)

vector 0 Rete.Servente queueLength:vector ETV
attr interpolationmode sample-hold
attr recordingmode vector
attr title "queue length"
vector 1 Rete.Pozzo lifeTime:vector ETV
attr interpolationmode none
attr recordingmode vector
attr title "lifetime of arrived jobs"
attr unit s
0	0	0	0
0	32	17.910963963772	1
0	33	18.011591365326	0
0	64	33.240554770563	1
0	65	34.56637914164	0
0	68	34.82078442937	1
0	69	35.248065924944	0
0	72	35.866944679825	1
0	74	36.256505470497	2
0	76	36.422498121509	3
0	77	37.122521311664	2
0	79	37.826216100869	1
0	81	38.178640604855	0
0	120	53.27925009603	1
0	121	53.54254150485	0
0	156	74.774304929654	1
0	157	75.659124976108	0
0	160	78.59919229445	1
0	161	78.998787534217	0
0	168	80.513892556347	1
0	169	82.226879126032	0
0	176	91.272692802122	1
0	177	91.352501638463	0
0	180	91.871482052999	1
0	181	91.910324472143	0
0	188	96.057188809914	1
0	189	96.682890766503	0
0	192	97.318820339904	1
0	193	97.449908789193	0
0	196	97.959708207405	1
0	197	100.523434453918	0
0	200	101.160668403891	1
0	201	101.309153508919	0
0	232	124.111261744974	1
0	233	124.818947672185	0
0	240	131.176640614171	1
0	241	131.388991312499	0
0	296	166.548767074864	1
0	297	167.331128537174	0
0	304	171.78209898975	1
0	305	172.247742624242	0
0	312	175.269022345816	1
0	314	175.747906762522	2
0	315	175.986220324725	1
0	318	176.375654435512	2
0	319	176.435680278483	1
0	322	178.123481796732	2
0	324	178.17524787612	3
0	325	178.541878929636	2
0	328	179.078242591417	3
0	329	179.627186190166	2
0	331	180.117430776233	1
0	334	180.477405934894	2
0	335	181.576245331067	1
0	338	181.852029594387	2
0	340	182.923994546405	3
0	341	184.035198565321	2
0	343	184.467323769867	1
0	345	184.997920970581	0
0	352	188.418693575457	1
0	354	189.255525611997	2
0	356	189.494841681957	3
0	357	190.034245060234	2
0	359	190.410042424785	1
0	362	190.456381845281	2
0	364	190.541774567998	3
0	366	192.624429613341	4
0	367	193.692379367869	3
0	370	195.306305057094	4
0	371	196.85879728205	3
0	374	197.449344614937	4
0	376	197.932559921881	5
0	378	198.453695187313	6
0	379	198.485646542308	5
0	382	199.531985708865	6
0	383	200.599282343599	5
0	385	201.49698776531	4
0	388	201.596746967015	5
0	389	202.580163782364	4
0	391	202.767068383778	3
0	393	203.526664048676	2
0	396	204.681915917538	3
0	397	205.660791825842	2
0	399	207.165906470713	1
0	401	208.02146326361	0
0	408	212.879947284263	1
0	409	213.616120140155	0
0	412	213.973330897968	1
0	413	214.997537924081	0
0	416	215.800818716211	1
0	418	216.026198970212	2
0	419	216.599928999733	1
0	421	217.059756646828	0
0	428	218.08005287769	1
0	429	220.100499096412	0
0	460	248.672552187409	1
0	461	250.341021589008	0
0	464	251.312236189464	1
0	465	251.318026647871	0
0	480	261.797299733164	1
0	481	261.815961909279	0
0	484	262.809818503898	1
0	485	263.018338064304	0
0	508	274.51522366819	1
0	510	274.710220597899	2
0	512	275.409824420699	3
0	513	275.507499784687	2
0	515	275.714876469046	1
0	518	275.794850381192	2
0	520	275.995127726924	3
0	521	276.438192522253	2
0	523	276.771926639406	1
0	525	278.30807655779	0
0	540	282.438219196345	1
0	541	283.182132429341	0
0	548	287.158558633688	1
0	550	287.472358377284	2
0	552	287.572563408622	3
0	554	288.980622305703	4
0	556	289.50886136406	5
0	558	290.325082565477	6
0	559	290.980435737789	5
0	561	291.156809537032	4
0	563	291.332910362971	3
0	565	291.580461845195	2
0	568	292.38686701155	3
0	569	293.62180555923	2
0	571	293.866942223978	1
0	573	295.141151615894	0
0	576	296.008967518937	1
0	578	296.114689596231	2
0	579	296.49499831977	1
0	581	297.471231041201	0
0	584	298.231668808277	1
0	586	298.906167790311	2
0	588	298.969660152277	3
0	589	299.075111993484	2
0	591	299.335923700111	1
0	593	300.125301430914	0
0	600	302.357500755227	1
0	602	302.389983647827	2
0	603	302.412258465919	1
0	606	302.45211785052	2
0	608	303.335758707778	3
0	610	304.326272536232	4
0	611	305.146176286403	3
0	614	306.108405601039	4
0	616	306.2156770922	5
0	617	307.56143207049	4
0	619	307.629350879906	3
0	621	307.724068651009	2
0	623	307.768544382216	1
0	625	308.212085738755	0
0	632	309.677677799544	1
0	633	310.743249911971	0
0	636	310.873448974904	1
0	638	310.935126816427	2
0	639	310.963930391827	1
0	641	311.279126143879	0
0	648	315.119548351959	1
0	649	316.081017470263	0
0	652	316.256973129195	1
0	653	316.424109010304	0
0	696	344.561403349043	1
0	697	344.749071428407	0
0	700	344.844741912997	1
0	702	344.864785829884	2
0	703	345.979974192537	1
0	705	346.446848411391	0
0	708	347.871232561422	1
0	710	347.892951913752	2
0	711	347.947893926128	1
0	714	349.290392265874	2
0	715	349.834812805123	1
0	717	350.113425183803	0
0	736	364.785440787234	1
0	737	364.987216329621	0
0	768	381.604041590525	1
0	769	381.814210238871	0
0	776	385.358976043968	1
0	778	385.499252896948	2
0	779	385.518529807468	1
0	782	386.482391272799	2
0	783	386.507878497741	1
0	785	387.515581667191	0
0	796	395.788782415887	1
0	797	395.835728786249	0
0	824	413.893275918134	1
0	825	414.435784256102	0
0	828	415.021777608393	1
0	829	415.567699501733	0
0	836	420.275305504212	1
0	837	420.679986044097	0
0	840	422.634639173486	1
0	842	423.477340088768	2
0	843	423.512169849233	1
0	845	424.369670579767	0
0	856	428.091008500217	1
0	857	428.182705900229	0
0	860	428.296288208242	1
0	862	428.809420435341	2
0	863	430.202984906955	1
0	866	431.953032514514	2
0	867	432.176465389976	1
0	869	432.506164602115	0
0	872	432.811528831441	1
0	874	433.079091266071	2
0	875	433.348137908936	1
0	877	433.425300643369	0
0	892	441.020526615067	1
0	893	441.594628481594	0
0	920	464.914682237035	1
0	921	465.758051065873	0
0	928	473.730272352712	1
0	929	474.049346772606	0
0	940	476.887543107918	1
0	941	477.09661395358	0
0	944	477.270936618243	1
0	946	477.592862372812	2
0	948	479.649836073481	3
0	950	479.676486921788	4
0	951	479.857765524004	3
0	953	479.859307447521	2
0	956	480.654942495958	3
0	958	480.739232228039	4
0	960	481.697862178452	5
0	961	481.791154617801	4
0	963	481.987546489989	3
0	966	482.806857350794	4
0	967	485.322869024445	3
0	969	485.524601359571	2
0	972	485.850255718467	3
0	973	486.163655486659	2
0	975	486.464058669041	1
0	977	486.879064047796	0
0	984	490.689434383934	1
0	985	492.520115151426	0
0	988	492.738949639912	1
0	989	492.802814446907	0
0	992	493.243843646411	1
0	993	494.364623814358	0
0	1004	497.615326234976	1
0	1006	498.204106562973	2
0	1007	499.054765075806	1
0	1010	499.442929615526	2
0	1012	499.711779225827	3
0	1013	500.34804308119	2
0	1016	500.703568724807	3
0	1017	501.116654322604	2
0	1019	501.468359852141	1
0	1022	501.68099085359	2
0	1024	502.067491020777	3
0	1025	502.795198494705	2
0	1027	502.877752375092	1
0	1029	503.155269622211	0
0	1036	509.795491597477	1
0	1037	509.893986239211	0
0	1040	510.900208744998	1
0	1041	510.920682872024	0
0	1060	519.834623910517	1
0	1061	520.264189132855	0
0	1064	520.876976700541	1
0	1066	521.001382089263	2
0	1067	522.429307769584	1
0	1069	522.56724299774	0
0	1084	535.285386761997	1
0	1085	535.747312329366	0
0	1092	538.381320093345	1
0	1093	538.612130305494	0
0	1100	542.1967489109	1
0	1102	543.106516769955	2
0	1103	543.775560537725	1
0	1106	543.888903395913	2
0	1107	544.664958907151	1
0	1109	545.301149363343	0
0	1116	553.794760518333	1
0	1117	554.633272787675	0
0	1128	563.395939689411	1
0	1130	563.480181095792	2
0	1131	564.446544591105	1
0	1133	564.774919718674	0
0	1144	571.76693884544	1
0	1145	571.805871501362	0
0	1148	572.233431715841	1
0	1150	572.279388878112	2
0	1151	572.78240258136	1
0	1153	572.837376508837	0
0	1160	574.282604588865	1
0	1162	574.960422506891	2
0	1163	575.387348935065	1
0	1165	575.657043381832	0
0	1176	581.498755591743	1
0	1177	581.713859693981	0
0	1180	581.944783163717	1
0	1181	582.015938257504	0
0	1196	585.457013145934	1
0	1197	587.409593292982	0
0	1216	596.996191367335	1
0	1218	598.0729728103	2
0	1219	598.142053536361	1
0	1221	598.284957897371	0
0	1224	599.001083274605	1
0	1225	599.590597322321	0
0	1240	604.806336081472	1
0	1242	604.866804545011	2
0	1244	605.545134988738	3
0	1245	606.076920600542	2
0	1248	609.345114263408	3
0	1249	609.491602447028	2
0	1252	609.869261469987	3
0	1253	610.594522002054	2
0	1255	611.293700888092	1
0	1257	611.668231216651	0
0	1276	626.821859367828	1
0	1277	627.091832527193	0
0	1288	630.641496618471	1
0	1290	632.078470897202	2
0	1291	633.319550113303	1
0	1294	633.706210727379	2
0	1295	633.71536953441	1
0	1298	634.591044402899	2
0	1300	634.610035025154	3
0	1301	635.720040158198	2
0	1303	636.012464485105	1
0	1305	636.467013804025	0
0	1340	652.940868602094	1
0	1342	654.794262164288	2
0	1344	655.255851750326	3
0	1345	655.288711355218	2
0	1347	655.912728718027	1
0	1350	656.083154708339	2
0	1352	657.154307735161	3
0	1354	657.993149813101	4
0	1355	658.451595001039	3
0	1358	658.681902203142	4
0	1360	659.463632171108	5
0	1361	659.497933521745	4
0	1363	659.735680155351	3
0	1366	659.915829665963	4
0	1368	660.573583171545	5
0	1369	662.002944136513	4
0	1371	662.127493170044	3
0	1373	663.890986889716	2
0	1376	663.948017421177	3
0	1377	665.059759472241	2
0	1380	666.061322299512	3
0	1381	666.094063163485	2
0	1383	666.467345833248	1
0	1385	667.747088036543	0
0	1388	669.038751070848	1
0	1389	669.869845946722	0
0	1408	684.660415443903	1
0	1410	684.87105856767	2
0	1411	685.208487270915	1
0	1413	685.210371702984	0
0	1420	688.748038223653	1
0	1422	690.875347504845	2
0	1424	690.880318522273	3
0	1425	691.726868304417	2
0	1427	692.4043766056	1
0	1430	692.782245579429	2
0	1431	693.177344420179	1
0	1433	695.502631254109	0
0	1460	706.219661446464	1
0	1462	706.283266212687	2
0	1464	706.350077700215	3
0	1465	707.365502703298	2
0	1467	708.906337835863	1
0	1469	710.397649763901	0
0	1480	718.111776314164	1
0	1482	718.322759745961	2
0	1484	718.530080611542	3
0	1485	718.807171445757	2
0	1488	721.077560032566	3
0	1489	721.148977347831	2
0	1491	722.876706062351	1
0	1493	723.156347420336	0
0	1496	723.560360349115	1
0	1497	723.626961528216	0
0	1528	737.207783549048	1
0	1529	737.433526391856	0
0	1532	738.552330557758	1
0	1533	740.768004880739	0
0	1556	749.121417082304	1
0	1557	749.216531131337	0
0	1580	763.244058841126	1
0	1581	763.305579783009	0
0	1584	763.725505805626	1
0	1586	764.697475730236	2
0	1588	764.735348354051	3
0	1589	765.39257032751	2
0	1591	765.488680887991	1
0	1593	765.525121844837	0
0	1608	772.346528704955	1
0	1609	772.491210960331	0
0	1628	783.057157838263	1
0	1630	783.34768053475	2
0	1631	784.266786753592	1
0	1633	784.63091243792	0
0	1636	784.869851289603	1
0	1638	786.19536839435	2
0	1640	786.265121705791	3
0	1641	786.272538946693	2
0	1643	786.439853026302	1
0	1645	787.673960503368	0
0	1660	802.968720063888	1
0	1662	803.604743616259	2
0	1663	803.631717738883	1
0	1665	804.146207424668	0
0	1668	804.536513522013	1
0	1670	804.67542493754	2
0	1672	805.654111729718	3
0	1673	806.548943412056	2
0	1676	807.610228846366	3
0	1678	807.714362608866	4
0	1679	808.358352927759	3
0	1681	808.720577961408	2
0	1684	809.555782190216	3
0	1686	810.006181122984	4
0	1687	811.151209824863	3
0	1690	811.329685792215	4
0	1691	815.071445006047	3
0	1693	815.392357648777	2
0	1695	816.252054605045	1
0	1697	816.670067984826	0
0	1716	826.196117909031	1
0	1717	828.623304441921	0
0	1724	842.936858447976	1
0	1725	843.048299646277	0
0	1736	852.484093106967	1
0	1738	852.843381398895	2
0	1739	853.057358048976	1
0	1741	853.235794406037	0
0	1744	854.410920159348	1
0	1745	856.490043315387	0
0	1764	874.770615281389	1
0	1766	875.719355138028	2
0	1767	875.802807731349	1
0	1769	876.54253943072	0
0	1772	876.638363369871	1
0	1774	876.880820651205	2
0	1775	877.679869736068	1
0	1778	878.541541326652	2
0	1780	879.007866017479	3
0	1782	879.404018664584	4
0	1783	879.632624611761	3
0	1785	880.143691164559	2
0	1787	880.789933279537	1
0	1790	880.986923616186	2
0	1791	881.22749958109	1
0	1793	881.440943006255	0
0	1796	881.811056178366	1
0	1798	882.071359926792	2
0	1800	882.197567059309	3
0	1801	882.527533467667	2
0	1803	882.993977713357	1
0	1805	884.654359867779	0
0	1812	886.980923687909	1
0	1814	888.468735256245	2
0	1815	890.069958172942	1
0	1817	890.133429761899	0
0	1820	890.864712452109	1
0	1821	891.116364202203	0
0	1828	894.444574331005	1
0	1829	894.675075059803	0
0	1836	901.576072840055	1
0	1837	902.896871960338	0
0	1840	903.421418922781	1
0	1841	903.499845090012	0
0	1884	924.021992340665	1
0	1885	924.552580985614	0
0	1888	924.751142633935	1
0	1889	925.123727584521	0
0	1892	925.434397852313	1
0	1893	927.561870736294	0
0	1900	929.292641465331	1
0	1902	929.397446986742	2
0	1904	931.114218840855	3
0	1905	931.454745586715	2
0	1907	931.659533872664	1
0	1910	932.066143608369	2
0	1911	934.309539387745	1
0	1913	934.333775416975	0
0	1916	940.109675784711	1
0	1918	940.135786882804	2
0	1919	940.838242896426	1
0	1921	940.971759609918	0
0	1924	941.318658706782	1
0	1926	942.012568058092	2
0	1927	942.409054931495	1
0	1929	943.670121826813	0
0	1940	945.477843926307	1
0	1942	945.535689596338	2
0	1943	946.253261144362	1
0	1945	946.965661481455	0
0	1948	947.337215277813	1
0	1949	947.74540551553	0
0	1952	947.91467079978	1
0	1953	948.641597265348	0
0	1960	952.217627747674	1
0	1961	952.92816360188	0
0	1968	958.854734809348	1
0	1970	959.461047049571	2
0	1972	960.65535788999	3
0	1973	961.251578763731	2
0	1975	962.444351583078	1
0	1978	962.648403357158	2
0	1979	963.02596353393	1
0	1982	963.629270118539	2
0	1983	963.648162867422	1
0	1986	963.734083523775	2
0	1987	964.349386468721	1
0	1990	965.913237517526	2
0	1991	965.982700364102	1
0	1993	966.132662008908	0
0	1996	966.823579688274	1
0	1997	966.937366554845	0
0	2020	983.370991733044	1
0	2021	985.033524706296	0
0	2028	987.45967589095	1
0	2029	987.93632485374	0
0	2036	989.729959828037	1
0	2037	991.034752248541	0
0	2044	993.221096439762	1
0	2046	994.34891664233	2
0	2047	994.45626541616	1
0	2050	994.787768222588	2
0	2051	995.234900982155	1
0	2053	995.728481088164	0
0	2060	999.780977072779	1
1	4	1.171652216101	0.026268236847
1	8	2.352477671707	0.7977579239
1	12	7.489256586843	0.571500318123
1	16	13.365806531293	0.545361517218
1	20	14.547625047675	0.400977423324
1	24	15.148522257127	0.228971294732
1	28	16.220699109917	0.965667365142
1	34	18.011591365326	0.356181747405
1	36	18.321965330947	0.411001367175
1	40	20.209396259642	0.970572258141
1	44	21.995381021446	0.75319890851
1	48	24.796712575297	0.144540274119
1	52	27.670722285971	0.720678961318
1	56	28.534470738331	0.203880116961
1	60	31.63690037498	1.538677292764
1	66	34.56637914164	1.92397943117
1	70	35.248065924944	2.007511154381
1	78	37.122521311664	2.301736882294
1	80	37.826216100869	1.959271421044
1	82	38.178640604855	1.922135134358
1	84	38.246155822509	1.823657701
1	88	43.970086858292	0.558830176131
1	92	44.191756361501	0.101513393691
1	96	44.473279813628	0.136002983627
1	100	45.646582362262	0.90818692664
1	104	46.35817722431	0.256198913449
1	108	47.883425621185	0.11310787649
1	112	48.52080557285	0.248854008506
1	116	51.620121471087	0.430515698541
1	122	53.54254150485	0.630712405315
1	124	53.767866467418	0.488616371388
1	128	55.218091363752	1.022781681771
1	132	56.119914615108	0.659847484657
1	136	58.287915202141	0.703675846838
1	140	61.224394833784	0.48921523686
1	144	64.489011785286	1.578120718463
1	148	65.677216227512	0.867510526985
1	152	74.375238605882	0.17709357042
1	158	75.659124976108	1.206483765876
1	162	78.998787534217	4.224482604563
1	164	79.691951442867	1.092759148417
1	170	82.226879126032	2.202921304882
1	172	82.644842497628	2.130949941281
1	178	91.352501638463	0.837350464502
1	182	91.910324472143	0.637631670021
1	184	92.484351311202	0.612869258203
1	190	96.682890766503	1.498608723404
1	194	97.449908789193	1.392719979279
1	198	100.523434453918	3.204614114014
1	202	101.309153508919	3.349445301514
1	204	101.39481480219	0.234146398299
1	208	104.982421049118	0.456246526858
1	212	112.345484626043	1.902806133961
1	216	114.425925561869	0.521339110887
1	220	115.379952207578	0.027579200085
1	224	116.135782188881	0.283925453318
1	228	118.667181530945	0.069504825702
1	234	124.818947672185	5.091630155069
1	236	128.345038934614	4.23377718964
1	242	131.388991312499	1.610730500259
1	244	132.309835190403	1.133194576232
1	248	135.046245329366	1.447998983343
1	252	136.235684676254	0.185396815417
1	256	137.708831963192	0.346757474121
1	260	144.558052411158	0.742477935147
1	264	145.366931136741	0.441026402433
1	268	145.752456341297	0.046755149518
1	272	152.659691155476	4.083608911351
1	276	154.553391370772	0.582240923085
1	280	157.156491829456	0.701180237491
1	284	158.303457236207	0.390883907741
1	288	162.529811320856	0.300760221853
1	292	164.331493204435	0.48921072462
1	298	167.331128537174	1.783891899573
1	300	168.665768500541	2.117001425677
1	306	172.247742624242	0.476763331257
1	308	172.26084543031	0.47874644056
1	316	175.986220324725	1.59654608776
1	320	176.435680278483	1.166657932667
1	326	178.541878929636	2.793972167114
1	330	179.627186190166	3.251531754654
1	332	180.117430776233	1.993948979501
1	336	181.576245331067	3.400997454947
1	342	184.035198565321	4.956955973904
1	344	184.467323769867	3.989917834973
1	346	184.997920970581	3.145891376194
1	348	185.798604153266	2.874609606861
1	358	190.034245060234	3.608616124127
1	360	190.410042424785	1.991348849328
1	368	193.692379367869	4.436853755872
1	372	196.85879728205	7.363955600093
1	380	198.485646542308	8.029264697027
1	384	200.599282343599	10.057507775601
1	386	201.49698776531	8.872558151969
1	390	202.580163782364	7.27385872527
1	392	202.767068383778	5.317723768841
1	394	203.526664048676	5.594104126795
1	398	205.660791825842	7.207096638529
1	400	207.165906470713	7.633920761848
1	402	208.02146326361	6.424716296595
1	404	208.16528076226	3.483364844722
1	410	213.616120140155	2.031921746346
1	414	214.997537924081	2.117590639818
1	420	216.599928999733	2.626598101765
1	422	217.059756646828	1.258937930617
1	424	217.309292836044	1.283093865832
1	430	220.100499096412	2.506644912712
1	432	220.997194508956	2.917141631266
1	436	221.797384018176	0.425011774353
1	440	224.879756936056	0.306224290215
1	444	228.643251564724	2.452425637037
1	448	231.245464865554	0.544271176109
1	452	236.772234448644	0.77694520226
1	456	244.533283480159	0.937622047066
1	462	250.341021589008	1.750136797125
1	466	251.318026647871	2.645474460462
1	468	251.512476043051	0.200239853587
1	472	256.740837387135	0.894669552956
1	476	260.15630151478	0.671906700465
1	482	261.815961909279	0.79386908964
1	486	263.018338064304	1.22103833114
1	488	263.300450557192	0.490632053294
1	492	263.666291623695	0.206565657094
1	496	269.082426022451	0.117189251085
1	500	270.531805708406	0.320286888707
1	504	274.046816449982	0.010302934685
1	514	275.507499784687	0.992523300126
1	516	275.714876469046	1.199652800856
1	522	276.438192522253	1.727971924354
1	524	276.771926639406	1.362102218707
1	526	278.30807655779	2.513226176598
1	528	278.550051793542	2.554924066618
1	532	280.571811465549	0.336317473868
1	536	282.382320278204	0.637541927075
1	542	283.182132429341	0.79739014047
1	544	285.047192666067	2.608973469722
1	560	290.980435737789	4.46625261926
1	562	291.156809537032	3.998250903344
1	564	291.332910362971	3.860551985687
1	566	291.580461845195	4.007898436573
1	570	293.62180555923	4.641183253527
1	572	293.866942223978	4.358080859918
1	574	295.141151615894	4.816069050417
1	580	296.49499831977	4.10813130822
1	582	297.471231041201	1.462263522264
1	590	299.075111993484	2.960422397253
1	592	299.335923700111	1.104254891834
1	594	300.125301430914	1.219133640603
1	596	301.344819438745	2.375159286468
1	604	302.412258465919	0.09163569901
1	612	305.146176286403	2.788675531176
1	618	307.56143207049	5.171448422663
1	620	307.629350879906	5.177233029386
1	622	307.724068651009	4.388309943231
1	624	307.768544382216	3.442271845984
1	626	308.212085738755	2.103680137716
1	628	308.714861780384	2.499184688184
1	634	310.743249911971	1.10390743147
1	640	310.963930391827	1.286252592283
1	642	311.279126143879	0.405677168975
1	644	311.84544527465	0.910318458223
1	650	316.081017470263	0.966640948493
1	654	316.424109010304	1.304560658345
1	656	317.379282395773	1.122309266578
1	660	321.098181258153	3.071748988716
1	664	328.273359777926	0.594233889382
1	668	329.054824371689	0.231994902376
1	672	330.277027882926	0.554024217087
1	676	334.440166778019	0.588020365093
1	680	335.888031371918	0.708499390344
1	684	338.649595407756	0.745985356692
1	688	340.753284845085	0.043355608523
1	692	341.671744688263	0.179628096984
1	698	344.749071428407	0.59825013984
1	704	345.979974192537	1.418570843494
1	706	346.446848411391	1.602106498394
1	712	347.947893926128	3.083108096244
1	716	349.834812805123	1.963580243701
1	718	350.113425183803	2.220473270051
1	720	350.51670325098	1.226310985106
1	724	356.228531820124	0.656734555951
1	728	359.230647591442	1.379811415147
1	732	362.062706256409	1.950798699639
1	738	364.987216329621	0.535220871062
1	740	366.87560467357	2.090163886336
1	744	371.236872575547	0.588014384902
1	748	372.602303337053	1.257890897668
1	752	374.021063753233	0.008484254629
1	756	375.328872226116	0.025524417593
1	760	378.484624029535	2.820947309117
1	764	379.285590855464	0.107738841652
1	770	381.814210238871	1.084614085944
1	772	382.147250616968	0.543209026443
1	780	385.518529807468	0.224197041532
1	784	386.507878497741	1.148902453773
1	786	387.515581667191	2.016328770243
1	788	388.360189634944	1.877798362145
1	792	394.172596080158	2.485482206033
1	798	395.835728786249	1.211548898068
1	800	396.531311841404	0.742529425517
1	804	400.404641654698	0.705395542804
1	808	400.907638754462	0.246950684076
1	812	407.35768203247	0.004674428865
1	816	410.925012740262	0.541003507104
1	820	412.322856137501	0.828683117127
1	826	414.435784256102	2.092015207709
1	830	415.567699501733	1.674423583599
1	832	417.414969845325	2.393192236932
1	838	420.679986044097	2.605872050766
1	844	423.512169849233	3.236864345021
1	846	424.369670579767	1.735031406281
1	848	424.510536930379	1.033196841611
1	852	427.28879906854	0.425611726334
1	858	428.182705900229	0.233828551273
1	864	430.202984906955	2.111976406738
1	868	432.176465389976	3.880177181734
1	870	432.506164602115	3.696744166774
1	876	433.348137908936	1.395105394422
1	878	433.425300643369	0.613771811928
1	880	435.21602810333	2.136936837259
1	884	436.580364291969	0.23041199989
1	888	438.450402254841	1.311855757195
1	894	441.594628481594	1.626656126296
1	896	441.638715213012	0.618188597945
1	900	443.959184193022	0.113378574671
1	904	445.04679179159	0.571077610751
1	908	448.747828891947	0.249591765944
1	912	457.922966716153	2.125460864234
1	916	459.890636959364	1.271850381356
1	922	465.758051065873	1.248298464762
1	924	467.227117034735	2.3124347977
1	930	474.049346772606	0.401593156318
1	932	474.308908294252	0.57863594154
1	936	475.720453341968	0.98441958933
1	942	477.09661395358	0.53525365494
1	952	479.857765524004	2.970222416086
1	954	479.859307447521	2.588370829278
1	962	481.791154617801	4.198292244989
1	964	481.987546489989	2.337710416508
1	968	485.322869024445	5.646382102657
1	970	485.524601359571	4.869658863613
1	974	486.163655486659	5.42442325862
1	976	486.464058669041	4.766196490589
1	978	486.879064047796	4.072206697002
1	980	488.058016627813	2.207760909346
1	986	492.520115151426	3.936575860656
1	990	492.802814446907	2.113380062973
1	994	494.364623814358	1.625674174446
1	996	495.801518016995	2.557674370584
1	1000	496.146338091936	0.127878591016
1	1008	499.054765075806	1.825746112756
1	1014	500.34804308119	2.732716846214
1	1018	501.116654322604	2.912547759631
1	1020	501.468359852141	2.025430236615
1	1026	502.795198494705	3.083419268878
1	1028	502.877752375092	2.174183650285
1	1030	503.155269622211	1.474278768621
1	1032	503.377037988791	1.309546968014
1	1038	509.893986239211	0.561397451972
1	1042	510.920682872024	1.125191274547
1	1044	511.012117661576	0.111908916578
1	1048	514.689275786514	1.257832862251
1	1052	517.355406175882	0.107301077051
1	1056	518.304996756327	0.193098307844
1	1062	520.264189132855	1.24939411863
1	1068	522.429307769584	2.594683859067
1	1070	522.56724299774	1.690266297199
1	1072	523.625405374701	2.624023285438
1	1076	529.816393791093	0.649582744494
1	1080	530.720495490968	0.09188237458
1	1086	535.747312329366	0.818598829257
1	1088	535.94716697162	0.661780209623
1	1094	538.612130305494	0.722374273416
1	1096	539.550999409758	1.169679316413
1	1104	543.775560537725	1.791034682889
1	1108	544.664958907151	2.468209996251
1	1110	545.301149363343	2.194632593388
1	1112	550.589568399762	6.700665003849
1	1118	554.633272787675	1.7495671152
1	1120	555.817941601916	2.023181083583
1	1124	562.167749048206	1.323018373491
1	1132	564.446544591105	2.081594376186
1	1134	564.774919718674	1.378980029263
1	1136	566.687240832764	3.207059736972
1	1140	570.557244711176	1.024261986175
1	1146	571.805871501362	0.076339489917
1	1152	572.78240258136	1.01546373592
1	1154	572.837376508837	0.603944792996
1	1156	573.01743497571	0.738046097598
1	1164	575.387348935065	2.236480786058
1	1166	575.657043381832	1.374438792967
1	1168	576.404939134096	1.444516627205
1	1172	579.067704068966	0.622594141499
1	1178	581.713859693981	0.671975478826
1	1182	582.015938257504	0.517182665761
1	1184	582.531170116536	0.586386952819
1	1188	584.866595015807	0.573889473915
1	1192	584.882093145879	0.015170628708
1	1198	587.409593292982	2.234047187591
1	1200	587.439175895562	1.982162749628
1	1204	591.712129096116	0.46663791414
1	1208	591.828492055733	0.100785792842
1	1212	594.222318060987	0.219356136742
1	1220	598.142053536361	2.854590636228
1	1222	598.284957897371	1.288766530036
1	1226	599.590597322321	1.517624512021
1	1228	599.725455432115	0.72437215751
1	1232	600.093394368276	0.289394091706
1	1236	602.246563778636	2.130611062919
1	1246	606.076920600542	2.336102133635
1	1250	609.491602447028	4.685266365556
1	1254	610.594522002054	5.727717457043
1	1256	611.293700888092	5.748565899354
1	1258	611.668231216651	2.323116953243
1	1260	612.143050279087	2.2737888091
1	1264	615.008072163622	0.411535933595
1	1268	618.893044870878	3.036777200168
1	1272	623.461368358414	1.181995507258
1	1278	627.091832527193	0.763787899903
1	1280	627.136296248874	0.314436881046
1	1284	629.546355287879	0.284421894097
1	1292	633.319550113303	2.867703646606
1	1296	633.71536953441	3.073872915939
1	1302	635.720040158198	3.641569260996
1	1304	636.012464485105	2.306253757726
1	1306	636.467013804025	1.875969401126
1	1308	636.760347403189	2.150312378035
1	1312	637.534404819201	0.187155857753
1	1316	640.534664521019	0.42308945338
1	1320	641.751602250852	0.22646036263
1	1324	642.589894096256	0.064966917708
1	1328	643.21206519914	0.103096849881
1	1332	647.125209857827	0.686623501204
1	1336	649.448702798542	0.072205809216
1	1346	655.288711355218	2.735733280225
1	1348	655.912728718027	2.971860115933
1	1356	658.451595001039	3.657332836751
1	1362	659.497933521745	4.242081771419
1	1364	659.735680155351	3.652525447012
1	1370	662.002944136513	4.848636401352
1	1372	662.127493170044	4.134343356943
1	1374	663.890986889716	5.209084686574
1	1378	665.059759472241	5.596127301133
1	1382	666.094063163485	6.178233497522
1	1384	666.467345833248	5.893762661703
1	1386	667.747088036543	3.799070615366
1	1390	669.869845946722	3.80852364721
1	1392	670.358218411475	1.319467340627
1	1396	673.862249193611	0.944405524439
1	1400	681.163742739095	0.740593836426
1	1404	682.178350138416	0.393126744855
1	1412	685.208487270915	2.65627057292
1	1414	685.210371702984	0.549956259081
1	1416	687.04999637252	2.17893780485
1	1426	691.726868304417	3.085408338818
1	1428	692.4043766056	3.656338381947
1	1432	693.177344420179	2.301996915334
1	1434	695.502631254109	4.622312731836
1	1436	695.646994538322	2.864748958893
1	1440	698.621716342162	0.281029765395
1	1444	699.717371267631	0.70332262086
1	1448	702.143929365745	1.134513616403
1	1452	702.718723983601	0.404605408808
1	1456	704.925467654699	0.365808923279
1	1466	707.365502703298	1.495207477762
1	1468	708.906337835863	2.686676389399
1	1470	710.397649763901	4.114383551214
1	1472	710.957211042663	4.607133342448
1	1476	713.137945591078	0.991578722523
1	1486	718.807171445757	1.222486548694
1	1490	721.148977347831	3.037201033667
1	1492	722.876706062351	4.55394631639
1	1494	723.156347420336	4.626266808794
1	1498	723.626961528216	2.54940149565
1	1500	723.843619069763	0.283258720648
1	1504	725.677284528457	0.064864377682
1	1508	726.422762883404	0.369049662483
1	1512	727.753696855081	1.248942128271
1	1516	732.933963693999	1.677618869261
1	1520	733.386141950371	0.395398398319
1	1524	734.250609726119	0.24883307978
1	1530	737.433526391856	0.396595831225
1	1534	740.768004880739	3.560221331691
1	1536	740.869031139582	2.316700581824
1	1540	741.329560239555	0.176956109682
1	1544	743.568781620998	1.184951934124
1	1548	746.495039644758	0.150547926275
1	1552	747.189203222471	0.31009932949
1	1558	749.216531131337	1.625444687032
1	1560	749.574080437198	0.452663354894
1	1564	753.111414878423	0.908859769611
1	1568	755.093596847514	0.850531754319
1	1572	757.472734079924	0.308488325392
1	1576	761.045978401371	0.285995879076
1	1582	763.305579783009	0.342033355715
1	1590	765.39257032751	2.148511486384
1	1592	765.488680887991	1.763175082365
1	1594	765.525121844837	0.827646114601
1	1596	765.94247223757	1.207123883519
1	1600	768.662686175768	0.24884817054
1	1604	770.582761361875	0.827495824889
1	1610	772.491210960331	0.775357938307
1	1612	773.175124896608	0.828596191653
1	1616	773.929846353683	0.35775133206
1	1620	775.90294778575	0.716310849567
1	1624	779.461489118703	1.542847666925
1	1632	784.266786753592	1.674006212744
1	1634	784.63091243792	1.573754599657
1	1642	786.272538946693	2.924858411943
1	1644	786.439853026302	1.570001736699
1	1646	787.673960503368	1.478592109018
1	1648	789.053021202973	2.787899497182